<LesHouchesEvents version="3.0">
<header>
<!--
#*********************************************************************
#                                                                    *
#                        MadGraph5_aMC@NLO                           *
#                                                                    *
#                           Going Beyond                             *
#                                                                    *
#                   http://madgraph.hep.uiuc.edu                     *
#                   http://madgraph.phys.ucl.ac.be                   *
#                   http://amcatnlo.cern.ch                          *
#                                                                    *
#                     The MadGraph5_aMC@NLO team                     *
#                                                                    *
#....................................................................*
#                                                                    *
# This file contains all the information necessary to reproduce      *
# the events generated:                                              *
#                                                                    *
# 1. software version                                                *
# 2. proc_card          : code generation info including model       *
# 3. param_card         : model primary parameters in the LH format  *
# 4. run_card           : running parameters (collider and cuts)     *
# 5. pythia_card        : present only if pythia has been run        *
# 6. pgs_card           : present only if pgs has been run           *
# 7. delphes_cards      : present only if delphes has been run       *
#                                                                    *
#                                                                    *
#*********************************************************************
-->
<MGVersion>
#3.6.2
</MGVersion>
<MG5ProcCard>
<![CDATA[
#************************************************************
#*                     MadGraph5_aMC@NLO                    *
#*                                                          *
#*                *                       *                 *
#*                  *        * *        *                   *
#*                    * * * * 5 * * * *                     *
#*                  *        * *        *                   *
#*                *                       *                 *
#*                                                          *
#*                                                          *
#*         VERSION 3.6.2                 2025-03-19         *
#*                                                          *
#*    The MadGraph5_aMC@NLO Development Team - Find us at   *
#*    https://server06.fynu.ucl.ac.be/projects/madgraph     *
#*                                                          *
#************************************************************
#*                                                          *
#*               Command File for MadGraph5_aMC@NLO         *
#*                                                          *
#*     run as ./bin/mg5_aMC  filename                       *
#*                                                          *
#************************************************************
set group_subprocesses Auto
set ignore_six_quark_processes False
set low_mem_multicore_nlo_generation False
set complex_mass_scheme False
set include_lepton_initiated_processes False
set gauge unitary
set loop_optimized_output True
set loop_color_flows False
set max_npoint_for_channel 0
set default_unset_couplings 99
set max_t_for_channel 99
set zerowidth_tchannel True
set nlo_mixed_expansion True
import model sm
define p = g u c d s u~ c~ d~ s~
define j = g u c d s u~ c~ d~ s~
define l+ = e+ mu+
define l- = e- mu-
define vl = ve vm vt
define vl~ = ve~ vm~ vt~
tutorial
generate p p > t t~
output MY_FIRST_MG5_RUN
]]>
</MG5ProcCard>
<MGProcCard>
#*********************************************************************
#                        MadGraph/MadEvent                           *
#                   http://madgraph.hep.uiuc.edu                     *
#                                                                    *
#                          proc_card.dat                             *
#*********************************************************************
#                                                                    *
#            This Files is generated by MADGRAPH 5                   *
#                                                                    *
# WARNING: This Files is generated for MADEVENT (compatibility issue)*
#          This files is NOT a valid MG4 proc_card.dat               *
#          Running this in MG4 will NEVER reproduce the result of MG5*
#                                                                    *
#*********************************************************************
#*********************************************************************
# Process(es) requested : mg2 input                                  *
#*********************************************************************
# Begin PROCESS # This is TAG. Do not modify this line
p p > t t~           #Process
# Be carefull the coupling are here in MG5 convention
          
end_coup           # End the couplings input

done               # this tells MG there are no more procs
# End PROCESS  # This is TAG. Do not modify this line
#*********************************************************************
# Model information                                                  *
#*********************************************************************
# Begin MODEL  # This is TAG. Do not modify this line
sm
# End   MODEL  # This is TAG. Do not modify this line
#*********************************************************************
# Start multiparticle definitions                                    *
#*********************************************************************
# Begin MULTIPARTICLES # This is TAG. Do not modify this line

# End  MULTIPARTICLES # This is TAG. Do not modify this line
</MGProcCard>
<MGRunCard>
<![CDATA[
#*********************************************************************
#                       MadGraph5_aMC@NLO                            *
#                                                                    *
#                     run_card.dat MadEvent                          *
#                                                                    *
#  This file is used to set the parameters of the run.               *
#                                                                    *
#  Some notation/conventions:                                        *
#                                                                    *
#   Lines starting with a '# ' are info or comments                  *
#                                                                    *
#   mind the format:   value    = variable     ! comment             *
#                                                                    *
#   To display more options, you can type the command:               *
#      update to_full                                                *
#*********************************************************************
#                                                                    
#*********************************************************************
# Tag name for the run (one word)                                    *
#*********************************************************************
  tag_1     = run_tag ! name of the run 
#*********************************************************************
# Number of events and rnd seed                                      *
# Warning: Do not generate more than 1M events in a single run       *
#*********************************************************************
  10000 = nevents ! Number of unweighted events requested 
 21 = iseed   ! rnd seed (0=assigned automatically=default))
#*********************************************************************
# Collider type and energy                                           *
# lpp: 0=No PDF, 1=proton, -1=antiproton,                            *
#                2=elastic photon of proton/ion beam                 *
#             +/-3=PDF of electron/positron beam                     *
#             +/-4=PDF of muon/antimuon beam                         *
#*********************************************************************
     1        = lpp1    ! beam 1 type 
     1        = lpp2    ! beam 2 type
     6500.0     = ebeam1  ! beam 1 total energy in GeV
     6500.0     = ebeam2  ! beam 2 total energy in GeV
# To see polarised beam options: type "update beam_pol"

#*********************************************************************
# PDF CHOICE: this automatically fixes alpha_s and its evol.         *
# pdlabel: lhapdf=LHAPDF (installation needed) [1412.7420]           *
#          iww=Improved Weizsaecker-Williams Approx.[hep-ph/9310350] *
#          eva=Effective W/Z/A Approx.       [2111.02442]            *
#          edff=EDFF in gamma-UPC            [eq.(11) in 2207.03012] *
#          chff=ChFF in gamma-UPC            [eq.(13) in 2207.03012] *
#          none=No PDF, same as lhapdf with lppx=0                   *
#*********************************************************************
     nn23lo1    = pdlabel     ! PDF set 
     230000    = lhaid     ! if pdlabel=lhapdf, this is the lhapdf number
# To see heavy ion options: type "update ion_pdf"
#*********************************************************************
# Renormalization and factorization scales                           *
#*********************************************************************
 False = fixed_ren_scale  ! if .true. use fixed ren scale
     False = fixed_fac_scale  ! if .true. use fixed fac scale
 91.188  = scale            ! fixed ren scale
 91.188  = dsqrt_q2fact1    ! fixed fact scale for pdf1
 91.188  = dsqrt_q2fact2    ! fixed fact scale for pdf2
 -1 = dynamical_scale_choice ! Choose one of the preselected dynamical choices
 1.0  = scalefact        ! scale factor for event-by-event scales

 
#*********************************************************************
# Type and output format
#*********************************************************************
  False     = gridpack  !True = setting up the grid pack
  -1.0 = time_of_flight ! threshold (in mm) below which the invariant livetime is not written (-1 means not written)
  average =  event_norm       ! average/sum. Normalization of the weight in the LHEF
# To see MLM/CKKW  merging options: type "update MLM" or "update CKKW"

#*********************************************************************
#
#*********************************************************************
# Phase-Space Optimization strategy (basic options)
#*********************************************************************
   0  = nhel          ! using helicities importance sampling or not.
                             ! 0: sum over helicity, 1: importance sampling
   1  = sde_strategy  ! default integration strategy (hep-ph/2021.00773)
                             ! 1 is old strategy (using amp square)
			     ! 2 is new strategy (using only the denominator)
# To see advanced option for Phase-Space optimization: type "update psoptim"			     
#*********************************************************************
# Customization (custom cuts/scale/bias/...)                         *
# list of files containing fortran function that overwrite default   *
#*********************************************************************
  = custom_fcts ! List of files containing user hook function
#*******************************                                                 
# Parton level cuts definition *
#*******************************
  0.0  = dsqrt_shat ! minimal shat for full process
#                                                                    
#
#*********************************************************************
# BW cutoff (M+/-bwcutoff*Gamma) ! Define on/off-shell for "$" and decay  
#*********************************************************************
  15.0  = bwcutoff      ! (M+/-bwcutoff*Gamma)
#*********************************************************************
# Standard Cuts                                                      *
#*********************************************************************
# Minimum and maximum pt's (for max, -1 means no cut)                *
#*********************************************************************
 {} = pt_min_pdg ! pt cut for other particles (use pdg code). Applied on particle and anti-particle
 {}	= pt_max_pdg ! pt cut for other particles (syntax e.g. {6: 100, 25: 50}) 
#
# For display option for energy cut in the partonic center of mass frame type 'update ecut'
#
#*********************************************************************
# Maximum and minimum absolute rapidity (for max, -1 means no cut)   *
#*********************************************************************
 {} = eta_min_pdg ! rap cut for other particles (use pdg code). Applied on particle and anti-particle
 {} = eta_max_pdg ! rap cut for other particles (syntax e.g. {6: 2.5, 23: 5})
#*********************************************************************
# Minimum and maximum DeltaR distance                                *
#*********************************************************************
#*********************************************************************
# Minimum and maximum invariant mass for pairs                       *
#*********************************************************************
 {} = mxx_min_pdg ! min invariant mass of a pair of particles X/X~ (e.g. {6:250})
 {'default': False} = mxx_only_part_antipart ! if True the invariant mass is applied only 
                       ! to pairs of particle/antiparticle and not to pairs of the same pdg codes.  
#*********************************************************************
# Inclusive cuts                                                     *
#*********************************************************************
 0.0  = ptheavy   ! minimum pt for at least one heavy final state
#*********************************************************************
# maximal pdg code for quark to be considered as a light jet         *
# (otherwise b cuts are applied)                                     *
#*********************************************************************
 4 = maxjetflavor    ! Maximum jet pdg code
#*********************************************************************
#
#*********************************************************************
# Store info for systematics studies                                 *
# WARNING: Do not use for interference type of computation           *
#*********************************************************************
   True  = use_syst      ! Enable systematics studies
#
systematics = systematics_program ! none, systematics [python], SysCalc [depreceted, C++]
['--mur=0.5,1,2', '--muf=0.5,1,2', '--pdf=errorset'] = systematics_arguments ! see: https://cp3.irmp.ucl.ac.be/projects/madgraph/wiki/Systematics#Systematicspythonmodule
]]>
</MGRunCard>
<slha>
######################################################################
## PARAM_CARD AUTOMATICALY GENERATED BY MG5                       ####
######################################################################
###################################
## INFORMATION FOR MASS
###################################
BLOCK MASS # 
      5 4.700000e+00 # mb
      6 1.730000e+02 # mt
      15 1.777000e+00 # mta
      23 9.118800e+01 # mz
      25 1.250000e+02 # mh
      1 0.000000e+00 # d : 0.0
      2 0.000000e+00 # u : 0.0
      3 0.000000e+00 # s : 0.0
      4 0.000000e+00 # c : 0.0
      11 0.000000e+00 # e- : 0.0
      12 0.000000e+00 # ve : 0.0
      13 0.000000e+00 # mu- : 0.0
      14 0.000000e+00 # vm : 0.0
      16 0.000000e+00 # vt : 0.0
      21 0.000000e+00 # g : 0.0
      22 0.000000e+00 # a : 0.0
      24 8.041900e+01 # w+ : cmath.sqrt(mz__exp__2/2. + cmath.sqrt(mz__exp__4/4. - (aew*cmath.pi*mz__exp__2)/(gf*sqrt__2)))
###################################
## INFORMATION FOR SMINPUTS
###################################
BLOCK SMINPUTS # 
      1 1.325070e+02 # aewm1
      2 1.166390e-05 # gf
      3 1.300000e-01 # as (note: this parameter is not used if you use a pdf set)
###################################
## INFORMATION FOR YUKAWA
###################################
BLOCK YUKAWA # 
      5 4.700000e+00 # ymb
      6 1.730000e+02 # ymt
      15 1.777000e+00 # ymtau
###################################
## INFORMATION FOR DECAY
###################################
DECAY 6 1.491500e+00 # wt
DECAY 23 2.441404e+00 # wz
DECAY 24 2.047600e+00 # ww
DECAY 25 6.382339e-03 # wh
DECAY 1 0.000000e+00 # d : 0.0
DECAY 2 0.000000e+00 # u : 0.0
DECAY 3 0.000000e+00 # s : 0.0
DECAY 4 0.000000e+00 # c : 0.0
DECAY 5 0.000000e+00 # b : 0.0
DECAY 11 0.000000e+00 # e- : 0.0
DECAY 12 0.000000e+00 # ve : 0.0
DECAY 13 0.000000e+00 # mu- : 0.0
DECAY 14 0.000000e+00 # vm : 0.0
DECAY 15 0.000000e+00 # ta- : 0.0
DECAY 16 0.000000e+00 # vt : 0.0
DECAY 21 0.000000e+00 # g : 0.0
DECAY 22 0.000000e+00 # a : 0.0
</slha>
<initrwgt>
<weightgroup name="Central scale variation" combine="envelope">
<weight id="1" MUR="0.5"  MUF="0.5"  PDF="247000" > MUR=0.5 MUF=0.5  </weight>
<weight id="2" MUR="0.5"  MUF="0.5"  DYN_SCALE="1"  PDF="247000" > MUR=0.5 MUF=0.5 dyn_scale_choice=sum pt  </weight>
<weight id="3" MUR="0.5"  MUF="0.5"  DYN_SCALE="2"  PDF="247000" > MUR=0.5 MUF=0.5 dyn_scale_choice=HT  </weight>
<weight id="4" MUR="0.5"  MUF="0.5"  DYN_SCALE="3"  PDF="247000" > MUR=0.5 MUF=0.5 dyn_scale_choice=HT/2  </weight>
<weight id="5" MUR="0.5"  MUF="0.5"  DYN_SCALE="4"  PDF="247000" > MUR=0.5 MUF=0.5 dyn_scale_choice=sqrts  </weight>
<weight id="6" MUR="0.5"  MUF="1.0"  PDF="247000" > MUR=0.5  </weight>
<weight id="7" MUR="0.5"  MUF="1.0"  DYN_SCALE="1"  PDF="247000" > MUR=0.5 dyn_scale_choice=sum pt  </weight>
<weight id="8" MUR="0.5"  MUF="1.0"  DYN_SCALE="2"  PDF="247000" > MUR=0.5 dyn_scale_choice=HT  </weight>
<weight id="9" MUR="0.5"  MUF="1.0"  DYN_SCALE="3"  PDF="247000" > MUR=0.5 dyn_scale_choice=HT/2  </weight>
<weight id="10" MUR="0.5"  MUF="1.0"  DYN_SCALE="4"  PDF="247000" > MUR=0.5 dyn_scale_choice=sqrts  </weight>
<weight id="11" MUR="0.5"  MUF="2.0"  PDF="247000" > MUR=0.5 MUF=2.0  </weight>
<weight id="12" MUR="0.5"  MUF="2.0"  DYN_SCALE="1"  PDF="247000" > MUR=0.5 MUF=2.0 dyn_scale_choice=sum pt  </weight>
<weight id="13" MUR="0.5"  MUF="2.0"  DYN_SCALE="2"  PDF="247000" > MUR=0.5 MUF=2.0 dyn_scale_choice=HT  </weight>
<weight id="14" MUR="0.5"  MUF="2.0"  DYN_SCALE="3"  PDF="247000" > MUR=0.5 MUF=2.0 dyn_scale_choice=HT/2  </weight>
<weight id="15" MUR="0.5"  MUF="2.0"  DYN_SCALE="4"  PDF="247000" > MUR=0.5 MUF=2.0 dyn_scale_choice=sqrts  </weight>
<weight id="16" MUR="1.0"  MUF="0.5"  PDF="247000" > MUF=0.5  </weight>
<weight id="17" MUR="1.0"  MUF="0.5"  DYN_SCALE="1"  PDF="247000" > MUF=0.5 dyn_scale_choice=sum pt  </weight>
<weight id="18" MUR="1.0"  MUF="0.5"  DYN_SCALE="2"  PDF="247000" > MUF=0.5 dyn_scale_choice=HT  </weight>
<weight id="19" MUR="1.0"  MUF="0.5"  DYN_SCALE="3"  PDF="247000" > MUF=0.5 dyn_scale_choice=HT/2  </weight>
<weight id="20" MUR="1.0"  MUF="0.5"  DYN_SCALE="4"  PDF="247000" > MUF=0.5 dyn_scale_choice=sqrts  </weight>
<weight id="21" MUR="1.0"  MUF="1.0"  DYN_SCALE="1"  PDF="247000" > dyn_scale_choice=sum pt  </weight>
<weight id="22" MUR="1.0"  MUF="1.0"  DYN_SCALE="2"  PDF="247000" > dyn_scale_choice=HT  </weight>
<weight id="23" MUR="1.0"  MUF="1.0"  DYN_SCALE="3"  PDF="247000" > dyn_scale_choice=HT/2  </weight>
<weight id="24" MUR="1.0"  MUF="1.0"  DYN_SCALE="4"  PDF="247000" > dyn_scale_choice=sqrts  </weight>
<weight id="25" MUR="1.0"  MUF="2.0"  PDF="247000" > MUF=2.0  </weight>
<weight id="26" MUR="1.0"  MUF="2.0"  DYN_SCALE="1"  PDF="247000" > MUF=2.0 dyn_scale_choice=sum pt  </weight>
<weight id="27" MUR="1.0"  MUF="2.0"  DYN_SCALE="2"  PDF="247000" > MUF=2.0 dyn_scale_choice=HT  </weight>
<weight id="28" MUR="1.0"  MUF="2.0"  DYN_SCALE="3"  PDF="247000" > MUF=2.0 dyn_scale_choice=HT/2  </weight>
<weight id="29" MUR="1.0"  MUF="2.0"  DYN_SCALE="4"  PDF="247000" > MUF=2.0 dyn_scale_choice=sqrts  </weight>
<weight id="30" MUR="2.0"  MUF="0.5"  PDF="247000" > MUR=2.0 MUF=0.5  </weight>
<weight id="31" MUR="2.0"  MUF="0.5"  DYN_SCALE="1"  PDF="247000" > MUR=2.0 MUF=0.5 dyn_scale_choice=sum pt  </weight>
<weight id="32" MUR="2.0"  MUF="0.5"  DYN_SCALE="2"  PDF="247000" > MUR=2.0 MUF=0.5 dyn_scale_choice=HT  </weight>
<weight id="33" MUR="2.0"  MUF="0.5"  DYN_SCALE="3"  PDF="247000" > MUR=2.0 MUF=0.5 dyn_scale_choice=HT/2  </weight>
<weight id="34" MUR="2.0"  MUF="0.5"  DYN_SCALE="4"  PDF="247000" > MUR=2.0 MUF=0.5 dyn_scale_choice=sqrts  </weight>
<weight id="35" MUR="2.0"  MUF="1.0"  PDF="247000" > MUR=2.0  </weight>
<weight id="36" MUR="2.0"  MUF="1.0"  DYN_SCALE="1"  PDF="247000" > MUR=2.0 dyn_scale_choice=sum pt  </weight>
<weight id="37" MUR="2.0"  MUF="1.0"  DYN_SCALE="2"  PDF="247000" > MUR=2.0 dyn_scale_choice=HT  </weight>
<weight id="38" MUR="2.0"  MUF="1.0"  DYN_SCALE="3"  PDF="247000" > MUR=2.0 dyn_scale_choice=HT/2  </weight>
<weight id="39" MUR="2.0"  MUF="1.0"  DYN_SCALE="4"  PDF="247000" > MUR=2.0 dyn_scale_choice=sqrts  </weight>
<weight id="40" MUR="2.0"  MUF="2.0"  PDF="247000" > MUR=2.0 MUF=2.0  </weight>
<weight id="41" MUR="2.0"  MUF="2.0"  DYN_SCALE="1"  PDF="247000" > MUR=2.0 MUF=2.0 dyn_scale_choice=sum pt  </weight>
<weight id="42" MUR="2.0"  MUF="2.0"  DYN_SCALE="2"  PDF="247000" > MUR=2.0 MUF=2.0 dyn_scale_choice=HT  </weight>
<weight id="43" MUR="2.0"  MUF="2.0"  DYN_SCALE="3"  PDF="247000" > MUR=2.0 MUF=2.0 dyn_scale_choice=HT/2  </weight>
<weight id="44" MUR="2.0"  MUF="2.0"  DYN_SCALE="4"  PDF="247000" > MUR=2.0 MUF=2.0 dyn_scale_choice=sqrts  </weight>
</weightgroup> # scale
<weightgroup name="NNPDF23_lo_as_0130_qed" combine="replicas"> # 247000: LO QCD + LO QED PDF set, alphas(MZ)=0.130. mem=0 ; average on replicas; mem=1-100 ; PDF replicas
<weight id="45" MUR="1.0"  MUF="1.0"  PDF="247000" >  </weight>
<weight id="46" MUR="1.0"  MUF="1.0"  PDF="247001" > PDF=247000 MemberID=1 </weight>
<weight id="47" MUR="1.0"  MUF="1.0"  PDF="247002" > PDF=247000 MemberID=2 </weight>
<weight id="48" MUR="1.0"  MUF="1.0"  PDF="247003" > PDF=247000 MemberID=3 </weight>
<weight id="49" MUR="1.0"  MUF="1.0"  PDF="247004" > PDF=247000 MemberID=4 </weight>
<weight id="50" MUR="1.0"  MUF="1.0"  PDF="247005" > PDF=247000 MemberID=5 </weight>
<weight id="51" MUR="1.0"  MUF="1.0"  PDF="247006" > PDF=247000 MemberID=6 </weight>
<weight id="52" MUR="1.0"  MUF="1.0"  PDF="247007" > PDF=247000 MemberID=7 </weight>
<weight id="53" MUR="1.0"  MUF="1.0"  PDF="247008" > PDF=247000 MemberID=8 </weight>
<weight id="54" MUR="1.0"  MUF="1.0"  PDF="247009" > PDF=247000 MemberID=9 </weight>
<weight id="55" MUR="1.0"  MUF="1.0"  PDF="247010" > PDF=247000 MemberID=10 </weight>
<weight id="56" MUR="1.0"  MUF="1.0"  PDF="247011" > PDF=247000 MemberID=11 </weight>
<weight id="57" MUR="1.0"  MUF="1.0"  PDF="247012" > PDF=247000 MemberID=12 </weight>
<weight id="58" MUR="1.0"  MUF="1.0"  PDF="247013" > PDF=247000 MemberID=13 </weight>
<weight id="59" MUR="1.0"  MUF="1.0"  PDF="247014" > PDF=247000 MemberID=14 </weight>
<weight id="60" MUR="1.0"  MUF="1.0"  PDF="247015" > PDF=247000 MemberID=15 </weight>
<weight id="61" MUR="1.0"  MUF="1.0"  PDF="247016" > PDF=247000 MemberID=16 </weight>
<weight id="62" MUR="1.0"  MUF="1.0"  PDF="247017" > PDF=247000 MemberID=17 </weight>
<weight id="63" MUR="1.0"  MUF="1.0"  PDF="247018" > PDF=247000 MemberID=18 </weight>
<weight id="64" MUR="1.0"  MUF="1.0"  PDF="247019" > PDF=247000 MemberID=19 </weight>
<weight id="65" MUR="1.0"  MUF="1.0"  PDF="247020" > PDF=247000 MemberID=20 </weight>
<weight id="66" MUR="1.0"  MUF="1.0"  PDF="247021" > PDF=247000 MemberID=21 </weight>
<weight id="67" MUR="1.0"  MUF="1.0"  PDF="247022" > PDF=247000 MemberID=22 </weight>
<weight id="68" MUR="1.0"  MUF="1.0"  PDF="247023" > PDF=247000 MemberID=23 </weight>
<weight id="69" MUR="1.0"  MUF="1.0"  PDF="247024" > PDF=247000 MemberID=24 </weight>
<weight id="70" MUR="1.0"  MUF="1.0"  PDF="247025" > PDF=247000 MemberID=25 </weight>
<weight id="71" MUR="1.0"  MUF="1.0"  PDF="247026" > PDF=247000 MemberID=26 </weight>
<weight id="72" MUR="1.0"  MUF="1.0"  PDF="247027" > PDF=247000 MemberID=27 </weight>
<weight id="73" MUR="1.0"  MUF="1.0"  PDF="247028" > PDF=247000 MemberID=28 </weight>
<weight id="74" MUR="1.0"  MUF="1.0"  PDF="247029" > PDF=247000 MemberID=29 </weight>
<weight id="75" MUR="1.0"  MUF="1.0"  PDF="247030" > PDF=247000 MemberID=30 </weight>
<weight id="76" MUR="1.0"  MUF="1.0"  PDF="247031" > PDF=247000 MemberID=31 </weight>
<weight id="77" MUR="1.0"  MUF="1.0"  PDF="247032" > PDF=247000 MemberID=32 </weight>
<weight id="78" MUR="1.0"  MUF="1.0"  PDF="247033" > PDF=247000 MemberID=33 </weight>
<weight id="79" MUR="1.0"  MUF="1.0"  PDF="247034" > PDF=247000 MemberID=34 </weight>
<weight id="80" MUR="1.0"  MUF="1.0"  PDF="247035" > PDF=247000 MemberID=35 </weight>
<weight id="81" MUR="1.0"  MUF="1.0"  PDF="247036" > PDF=247000 MemberID=36 </weight>
<weight id="82" MUR="1.0"  MUF="1.0"  PDF="247037" > PDF=247000 MemberID=37 </weight>
<weight id="83" MUR="1.0"  MUF="1.0"  PDF="247038" > PDF=247000 MemberID=38 </weight>
<weight id="84" MUR="1.0"  MUF="1.0"  PDF="247039" > PDF=247000 MemberID=39 </weight>
<weight id="85" MUR="1.0"  MUF="1.0"  PDF="247040" > PDF=247000 MemberID=40 </weight>
<weight id="86" MUR="1.0"  MUF="1.0"  PDF="247041" > PDF=247000 MemberID=41 </weight>
<weight id="87" MUR="1.0"  MUF="1.0"  PDF="247042" > PDF=247000 MemberID=42 </weight>
<weight id="88" MUR="1.0"  MUF="1.0"  PDF="247043" > PDF=247000 MemberID=43 </weight>
<weight id="89" MUR="1.0"  MUF="1.0"  PDF="247044" > PDF=247000 MemberID=44 </weight>
<weight id="90" MUR="1.0"  MUF="1.0"  PDF="247045" > PDF=247000 MemberID=45 </weight>
<weight id="91" MUR="1.0"  MUF="1.0"  PDF="247046" > PDF=247000 MemberID=46 </weight>
<weight id="92" MUR="1.0"  MUF="1.0"  PDF="247047" > PDF=247000 MemberID=47 </weight>
<weight id="93" MUR="1.0"  MUF="1.0"  PDF="247048" > PDF=247000 MemberID=48 </weight>
<weight id="94" MUR="1.0"  MUF="1.0"  PDF="247049" > PDF=247000 MemberID=49 </weight>
<weight id="95" MUR="1.0"  MUF="1.0"  PDF="247050" > PDF=247000 MemberID=50 </weight>
<weight id="96" MUR="1.0"  MUF="1.0"  PDF="247051" > PDF=247000 MemberID=51 </weight>
<weight id="97" MUR="1.0"  MUF="1.0"  PDF="247052" > PDF=247000 MemberID=52 </weight>
<weight id="98" MUR="1.0"  MUF="1.0"  PDF="247053" > PDF=247000 MemberID=53 </weight>
<weight id="99" MUR="1.0"  MUF="1.0"  PDF="247054" > PDF=247000 MemberID=54 </weight>
<weight id="100" MUR="1.0"  MUF="1.0"  PDF="247055" > PDF=247000 MemberID=55 </weight>
<weight id="101" MUR="1.0"  MUF="1.0"  PDF="247056" > PDF=247000 MemberID=56 </weight>
<weight id="102" MUR="1.0"  MUF="1.0"  PDF="247057" > PDF=247000 MemberID=57 </weight>
<weight id="103" MUR="1.0"  MUF="1.0"  PDF="247058" > PDF=247000 MemberID=58 </weight>
<weight id="104" MUR="1.0"  MUF="1.0"  PDF="247059" > PDF=247000 MemberID=59 </weight>
<weight id="105" MUR="1.0"  MUF="1.0"  PDF="247060" > PDF=247000 MemberID=60 </weight>
<weight id="106" MUR="1.0"  MUF="1.0"  PDF="247061" > PDF=247000 MemberID=61 </weight>
<weight id="107" MUR="1.0"  MUF="1.0"  PDF="247062" > PDF=247000 MemberID=62 </weight>
<weight id="108" MUR="1.0"  MUF="1.0"  PDF="247063" > PDF=247000 MemberID=63 </weight>
<weight id="109" MUR="1.0"  MUF="1.0"  PDF="247064" > PDF=247000 MemberID=64 </weight>
<weight id="110" MUR="1.0"  MUF="1.0"  PDF="247065" > PDF=247000 MemberID=65 </weight>
<weight id="111" MUR="1.0"  MUF="1.0"  PDF="247066" > PDF=247000 MemberID=66 </weight>
<weight id="112" MUR="1.0"  MUF="1.0"  PDF="247067" > PDF=247000 MemberID=67 </weight>
<weight id="113" MUR="1.0"  MUF="1.0"  PDF="247068" > PDF=247000 MemberID=68 </weight>
<weight id="114" MUR="1.0"  MUF="1.0"  PDF="247069" > PDF=247000 MemberID=69 </weight>
<weight id="115" MUR="1.0"  MUF="1.0"  PDF="247070" > PDF=247000 MemberID=70 </weight>
<weight id="116" MUR="1.0"  MUF="1.0"  PDF="247071" > PDF=247000 MemberID=71 </weight>
<weight id="117" MUR="1.0"  MUF="1.0"  PDF="247072" > PDF=247000 MemberID=72 </weight>
<weight id="118" MUR="1.0"  MUF="1.0"  PDF="247073" > PDF=247000 MemberID=73 </weight>
<weight id="119" MUR="1.0"  MUF="1.0"  PDF="247074" > PDF=247000 MemberID=74 </weight>
<weight id="120" MUR="1.0"  MUF="1.0"  PDF="247075" > PDF=247000 MemberID=75 </weight>
<weight id="121" MUR="1.0"  MUF="1.0"  PDF="247076" > PDF=247000 MemberID=76 </weight>
<weight id="122" MUR="1.0"  MUF="1.0"  PDF="247077" > PDF=247000 MemberID=77 </weight>
<weight id="123" MUR="1.0"  MUF="1.0"  PDF="247078" > PDF=247000 MemberID=78 </weight>
<weight id="124" MUR="1.0"  MUF="1.0"  PDF="247079" > PDF=247000 MemberID=79 </weight>
<weight id="125" MUR="1.0"  MUF="1.0"  PDF="247080" > PDF=247000 MemberID=80 </weight>
<weight id="126" MUR="1.0"  MUF="1.0"  PDF="247081" > PDF=247000 MemberID=81 </weight>
<weight id="127" MUR="1.0"  MUF="1.0"  PDF="247082" > PDF=247000 MemberID=82 </weight>
<weight id="128" MUR="1.0"  MUF="1.0"  PDF="247083" > PDF=247000 MemberID=83 </weight>
<weight id="129" MUR="1.0"  MUF="1.0"  PDF="247084" > PDF=247000 MemberID=84 </weight>
<weight id="130" MUR="1.0"  MUF="1.0"  PDF="247085" > PDF=247000 MemberID=85 </weight>
<weight id="131" MUR="1.0"  MUF="1.0"  PDF="247086" > PDF=247000 MemberID=86 </weight>
<weight id="132" MUR="1.0"  MUF="1.0"  PDF="247087" > PDF=247000 MemberID=87 </weight>
<weight id="133" MUR="1.0"  MUF="1.0"  PDF="247088" > PDF=247000 MemberID=88 </weight>
<weight id="134" MUR="1.0"  MUF="1.0"  PDF="247089" > PDF=247000 MemberID=89 </weight>
<weight id="135" MUR="1.0"  MUF="1.0"  PDF="247090" > PDF=247000 MemberID=90 </weight>
<weight id="136" MUR="1.0"  MUF="1.0"  PDF="247091" > PDF=247000 MemberID=91 </weight>
<weight id="137" MUR="1.0"  MUF="1.0"  PDF="247092" > PDF=247000 MemberID=92 </weight>
<weight id="138" MUR="1.0"  MUF="1.0"  PDF="247093" > PDF=247000 MemberID=93 </weight>
<weight id="139" MUR="1.0"  MUF="1.0"  PDF="247094" > PDF=247000 MemberID=94 </weight>
<weight id="140" MUR="1.0"  MUF="1.0"  PDF="247095" > PDF=247000 MemberID=95 </weight>
<weight id="141" MUR="1.0"  MUF="1.0"  PDF="247096" > PDF=247000 MemberID=96 </weight>
<weight id="142" MUR="1.0"  MUF="1.0"  PDF="247097" > PDF=247000 MemberID=97 </weight>
<weight id="143" MUR="1.0"  MUF="1.0"  PDF="247098" > PDF=247000 MemberID=98 </weight>
<weight id="144" MUR="1.0"  MUF="1.0"  PDF="247099" > PDF=247000 MemberID=99 </weight>
<weight id="145" MUR="1.0"  MUF="1.0"  PDF="247100" > PDF=247000 MemberID=100 </weight>
</weightgroup>
</initrwgt>
<MGGenerationInfo>
#  Number of Events        :       10000
#  Integrated weight (pb)  :       504.818
</MGGenerationInfo>
</header>
<init>
2212 2212 6.500000e+03 6.500000e+03 0 0 247000 247000 -4 1
5.048180e+02 7.521532e-01 5.048180e+02 1
<generator name='MadGraph5_aMC@NLO' version='3.6.2'>please cite 1405.0301 </generator>
</init>
<event>
 4      1 +5.0481800e+02 1.76709900e+02 7.54677100e-03 1.17102600e-01
        2 -1    0    0  502    0 +0.0000000000e+00 +0.0000000000e+00 +1.6801959055e+02 1.6801959055e+02 0.0000000000e+00 0.0000e+00 1.0000e+00
       -2 -1    0    0    0  501 -0.0000000000e+00 -0.0000000000e+00 -3.6057100553e+02 3.6057100553e+02 0.0000000000e+00 0.0000e+00 -1.0000e+00
        6  1    1    2  502    0 -1.0742571918e+01 -3.4379861756e+01 -2.8025420328e+02 3.3131374285e+02 1.7300000000e+02 0.0000e+00 -1.0000e+00
       -6  1    1    2    0  501 +1.0742571918e+01 +3.4379861756e+01 +8.7702788293e+01 1.9727685323e+02 1.7300000000e+02 0.0000e+00 1.0000e+00
<mgrwt>
<rscale>  2 0.17670987E+03</rscale>
<asrwt>0</asrwt>
<pdfrwt beam="1">  1        2 0.25849168E-01 0.17670987E+03</pdfrwt>
<pdfrwt beam="2">  1       -2 0.55472462E-01 0.17670987E+03</pdfrwt>
<totfact> 0.64230789E+02</totfact>
</mgrwt>
<rwgt>
<wgt id='1'> +6.1321692e+02 </wgt>
<wgt id='2'> +6.9337590e+02 </wgt>
<wgt id='3'> +5.0481800e+02 </wgt>
<wgt id='4'> +6.1321692e+02 </wgt>
<wgt id='5'> +4.6530431e+02 </wgt>
<wgt id='6'> +6.2198889e+02 </wgt>
<wgt id='7'> +7.0684886e+02 </wgt>
<wgt id='8'> +5.0857621e+02 </wgt>
<wgt id='9'> +6.2198889e+02 </wgt>
<wgt id='10'> +4.6749482e+02 </wgt>
<wgt id='11'> +6.2661940e+02 </wgt>
<wgt id='12'> +7.1483971e+02 </wgt>
<wgt id='13'> +5.0965826e+02 </wgt>
<wgt id='14'> +6.2661940e+02 </wgt>
<wgt id='15'> +4.6753341e+02 </wgt>
<wgt id='16'> +4.9769850e+02 </wgt>
<wgt id='17'> +5.5448328e+02 </wgt>
<wgt id='18'> +4.2389623e+02 </wgt>
<wgt id='19'> +4.9769850e+02 </wgt>
<wgt id='20'> +3.9374247e+02 </wgt>
<wgt id='21'> +5.6525742e+02 </wgt>
<wgt id='22'> +4.2705200e+02 </wgt>
<wgt id='23'> +5.0481800e+02 </wgt>
<wgt id='24'> +3.9559608e+02 </wgt>
<wgt id='25'> +5.0857621e+02 </wgt>
<wgt id='26'> +5.7164759e+02 </wgt>
<wgt id='27'> +4.2796060e+02 </wgt>
<wgt id='28'> +5.0857621e+02 </wgt>
<wgt id='29'> +3.9562874e+02 </wgt>
<wgt id='30'> +4.1791797e+02 </wgt>
<wgt id='31'> +4.5669648e+02 </wgt>
<wgt id='32'> +3.6121414e+02 </wgt>
<wgt id='33'> +4.1791797e+02 </wgt>
<wgt id='34'> +3.3750316e+02 </wgt>
<wgt id='35'> +4.2389623e+02 </wgt>
<wgt id='36'> +4.6557053e+02 </wgt>
<wgt id='37'> +3.6390326e+02 </wgt>
<wgt id='38'> +4.2389623e+02 </wgt>
<wgt id='39'> +3.3909202e+02 </wgt>
<wgt id='40'> +4.2705200e+02 </wgt>
<wgt id='41'> +4.7083375e+02 </wgt>
<wgt id='42'> +3.6467751e+02 </wgt>
<wgt id='43'> +4.2705200e+02 </wgt>
<wgt id='44'> +3.3912001e+02 </wgt>
<wgt id='45'> +5.0481800e+02 </wgt>
<wgt id='46'> +5.2254681e+02 </wgt>
<wgt id='47'> +4.9209450e+02 </wgt>
<wgt id='48'> +4.8194576e+02 </wgt>
<wgt id='49'> +5.2412988e+02 </wgt>
<wgt id='50'> +4.4459338e+02 </wgt>
<wgt id='51'> +4.9412642e+02 </wgt>
<wgt id='52'> +5.2449877e+02 </wgt>
<wgt id='53'> +5.2083551e+02 </wgt>
<wgt id='54'> +4.8791324e+02 </wgt>
<wgt id='55'> +4.8133850e+02 </wgt>
<wgt id='56'> +5.3071347e+02 </wgt>
<wgt id='57'> +4.6047519e+02 </wgt>
<wgt id='58'> +5.3850400e+02 </wgt>
<wgt id='59'> +5.0953400e+02 </wgt>
<wgt id='60'> +5.0774317e+02 </wgt>
<wgt id='61'> +4.9968071e+02 </wgt>
<wgt id='62'> +5.2890240e+02 </wgt>
<wgt id='63'> +5.4039468e+02 </wgt>
<wgt id='64'> +4.8445932e+02 </wgt>
<wgt id='65'> +4.6128094e+02 </wgt>
<wgt id='66'> +5.1341587e+02 </wgt>
<wgt id='67'> +5.2996027e+02 </wgt>
<wgt id='68'> +4.3292819e+02 </wgt>
<wgt id='69'> +4.7747693e+02 </wgt>
<wgt id='70'> +5.2975589e+02 </wgt>
<wgt id='71'> +4.9715737e+02 </wgt>
<wgt id='72'> +4.7193582e+02 </wgt>
<wgt id='73'> +5.2590080e+02 </wgt>
<wgt id='74'> +4.6098224e+02 </wgt>
<wgt id='75'> +4.7303470e+02 </wgt>
<wgt id='76'> +5.0531397e+02 </wgt>
<wgt id='77'> +5.3063863e+02 </wgt>
<wgt id='78'> +4.9286630e+02 </wgt>
<wgt id='79'> +5.1276299e+02 </wgt>
<wgt id='80'> +5.1053613e+02 </wgt>
<wgt id='81'> +5.1662010e+02 </wgt>
<wgt id='82'> +5.0189125e+02 </wgt>
<wgt id='83'> +4.7317544e+02 </wgt>
<wgt id='84'> +5.2987149e+02 </wgt>
<wgt id='85'> +5.1250753e+02 </wgt>
<wgt id='86'> +5.6274541e+02 </wgt>
<wgt id='87'> +5.1672441e+02 </wgt>
<wgt id='88'> +4.8183355e+02 </wgt>
<wgt id='89'> +6.1313391e+02 </wgt>
<wgt id='90'> +5.6868288e+02 </wgt>
<wgt id='91'> +4.6895991e+02 </wgt>
<wgt id='92'> +5.1952250e+02 </wgt>
<wgt id='93'> +5.0323117e+02 </wgt>
<wgt id='94'> +5.3352436e+02 </wgt>
<wgt id='95'> +4.9160255e+02 </wgt>
<wgt id='96'> +4.9792482e+02 </wgt>
<wgt id='97'> +5.1244782e+02 </wgt>
<wgt id='98'> +5.1059270e+02 </wgt>
<wgt id='99'> +5.4521130e+02 </wgt>
<wgt id='100'> +4.8312349e+02 </wgt>
<wgt id='101'> +4.7772809e+02 </wgt>
<wgt id='102'> +4.9931056e+02 </wgt>
<wgt id='103'> +5.2856121e+02 </wgt>
<wgt id='104'> +4.9304128e+02 </wgt>
<wgt id='105'> +4.8430317e+02 </wgt>
<wgt id='106'> +5.1392779e+02 </wgt>
<wgt id='107'> +5.0196692e+02 </wgt>
<wgt id='108'> +5.0507037e+02 </wgt>
<wgt id='109'> +5.2056630e+02 </wgt>
<wgt id='110'> +5.3036193e+02 </wgt>
<wgt id='111'> +4.9591989e+02 </wgt>
<wgt id='112'> +4.6803164e+02 </wgt>
<wgt id='113'> +5.0555959e+02 </wgt>
<wgt id='114'> +5.0036797e+02 </wgt>
<wgt id='115'> +4.7724217e+02 </wgt>
<wgt id='116'> +5.0158211e+02 </wgt>
<wgt id='117'> +4.8555471e+02 </wgt>
<wgt id='118'> +4.9026925e+02 </wgt>
<wgt id='119'> +5.3002242e+02 </wgt>
<wgt id='120'> +4.9458570e+02 </wgt>
<wgt id='121'> +5.1262604e+02 </wgt>
<wgt id='122'> +5.1072287e+02 </wgt>
<wgt id='123'> +5.2328407e+02 </wgt>
<wgt id='124'> +4.8505698e+02 </wgt>
<wgt id='125'> +4.4929965e+02 </wgt>
<wgt id='126'> +5.1878348e+02 </wgt>
<wgt id='127'> +5.2883861e+02 </wgt>
<wgt id='128'> +5.1796531e+02 </wgt>
<wgt id='129'> +4.8373893e+02 </wgt>
<wgt id='130'> +4.6162116e+02 </wgt>
<wgt id='131'> +5.1567637e+02 </wgt>
<wgt id='132'> +4.8774645e+02 </wgt>
<wgt id='133'> +5.8854130e+02 </wgt>
<wgt id='134'> +4.6045703e+02 </wgt>
<wgt id='135'> +4.7317730e+02 </wgt>
<wgt id='136'> +5.0617689e+02 </wgt>
<wgt id='137'> +5.2273315e+02 </wgt>
<wgt id='138'> +5.0429694e+02 </wgt>
<wgt id='139'> +5.6212290e+02 </wgt>
<wgt id='140'> +4.5496114e+02 </wgt>
<wgt id='141'> +4.8759479e+02 </wgt>
<wgt id='142'> +4.9711022e+02 </wgt>
<wgt id='143'> +5.1557047e+02 </wgt>
<wgt id='144'> +5.1810951e+02 </wgt>
<wgt id='145'> +5.3512277e+02 </wgt>
</rwgt>
</event>
<event>
 4      1 +5.0481800e+02 2.48934700e+02 7.54677100e-03 1.11398000e-01
       21 -1    0    0  501  502 +0.0000000000e+00 +0.0000000000e+00 +1.0931816397e+02 1.0931816397e+02 0.0000000000e+00 0.0000e+00 1.0000e+00
       21 -1    0    0  502  503 -0.0000000000e+00 -0.0000000000e+00 -5.7688533543e+02 5.7688533543e+02 0.0000000000e+00 0.0000e+00 -1.0000e+00
        6  1    1    2  501    0 -1.7120748992e+02 +5.2225213746e+01 -1.8856138279e+02 3.1228812439e+02 1.7300000000e+02 0.0000e+00 1.0000e+00
       -6  1    1    2    0  503 +1.7120748992e+02 -5.2225213746e+01 -2.7900578867e+02 3.7391537501e+02 1.7300000000e+02 0.0000e+00 -1.0000e+00
<mgrwt>
<rscale>  2 0.24893469E+03</rscale>
<asrwt>0</asrwt>
<pdfrwt beam="1">  1       21 0.16818179E-01 0.24893469E+03</pdfrwt>
<pdfrwt beam="2">  1       21 0.88751592E-01 0.24893469E+03</pdfrwt>
<totfact> 0.33562417E+04</totfact>
</mgrwt>
<rwgt>
<wgt id='1'> +6.5401633e+02 </wgt>
<wgt id='2'> +5.3859213e+02 </wgt>
<wgt id='3'> +5.0481800e+02 </wgt>
<wgt id='4'> +6.5401633e+02 </wgt>
<wgt id='5'> +5.0321964e+02 </wgt>
<wgt id='6'> +6.1099859e+02 </wgt>
<wgt id='7'> +4.9860755e+02 </wgt>
<wgt id='8'> +4.6746941e+02 </wgt>
<wgt id='9'> +6.1099859e+02 </wgt>
<wgt id='10'> +4.6599265e+02 </wgt>
<wgt id='11'> +5.6579430e+02 </wgt>
<wgt id='12'> +4.6201788e+02 </wgt>
<wgt id='13'> +4.3330004e+02 </wgt>
<wgt id='14'> +5.6579430e+02 </wgt>
<wgt id='15'> +4.3193831e+02 </wgt>
<wgt id='16'> +5.4036003e+02 </wgt>
<wgt id='17'> +4.5428095e+02 </wgt>
<wgt id='18'> +4.2727555e+02 </wgt>
<wgt id='19'> +5.4036003e+02 </wgt>
<wgt id='20'> +4.2599708e+02 </wgt>
<wgt id='21'> +4.2055556e+02 </wgt>
<wgt id='22'> +3.9566388e+02 </wgt>
<wgt id='23'> +5.0481800e+02 </wgt>
<wgt id='24'> +3.9448283e+02 </wgt>
<wgt id='25'> +4.6746941e+02 </wgt>
<wgt id='26'> +3.8969363e+02 </wgt>
<wgt id='27'> +3.6674308e+02 </wgt>
<wgt id='28'> +4.6746941e+02 </wgt>
<wgt id='29'> +3.6565436e+02 </wgt>
<wgt id='30'> +4.5735815e+02 </wgt>
<wgt id='31'> +3.8826727e+02 </wgt>
<wgt id='32'> +3.6631803e+02 </wgt>
<wgt id='33'> +4.5735815e+02 </wgt>
<wgt id='34'> +3.6527691e+02 </wgt>
<wgt id='35'> +4.2727554e+02 </wgt>
<wgt id='36'> +3.5944268e+02 </wgt>
<wgt id='37'> +3.3921626e+02 </wgt>
<wgt id='38'> +4.2727555e+02 </wgt>
<wgt id='39'> +3.3825459e+02 </wgt>
<wgt id='40'> +3.9566387e+02 </wgt>
<wgt id='41'> +3.3306544e+02 </wgt>
<wgt id='42'> +3.1442147e+02 </wgt>
<wgt id='43'> +3.9566388e+02 </wgt>
<wgt id='44'> +3.1353524e+02 </wgt>
<wgt id='45'> +5.0481800e+02 </wgt>
<wgt id='46'> +5.1409083e+02 </wgt>
<wgt id='47'> +5.2223447e+02 </wgt>
<wgt id='48'> +5.0898026e+02 </wgt>
<wgt id='49'> +4.9771049e+02 </wgt>
<wgt id='50'> +6.0111987e+02 </wgt>
<wgt id='51'> +4.9284731e+02 </wgt>
<wgt id='52'> +5.0282353e+02 </wgt>
<wgt id='53'> +5.0134576e+02 </wgt>
<wgt id='54'> +5.1198279e+02 </wgt>
<wgt id='55'> +4.7217717e+02 </wgt>
<wgt id='56'> +4.6275765e+02 </wgt>
<wgt id='57'> +5.0301162e+02 </wgt>
<wgt id='58'> +4.9563563e+02 </wgt>
<wgt id='59'> +5.1779660e+02 </wgt>
<wgt id='60'> +4.9906205e+02 </wgt>
<wgt id='61'> +4.5275187e+02 </wgt>
<wgt id='62'> +4.9570227e+02 </wgt>
<wgt id='63'> +5.0699988e+02 </wgt>
<wgt id='64'> +4.9536308e+02 </wgt>
<wgt id='65'> +5.6827373e+02 </wgt>
<wgt id='66'> +4.9621094e+02 </wgt>
<wgt id='67'> +5.0820197e+02 </wgt>
<wgt id='68'> +5.5471220e+02 </wgt>
<wgt id='69'> +5.0434361e+02 </wgt>
<wgt id='70'> +4.9869528e+02 </wgt>
<wgt id='71'> +5.1004773e+02 </wgt>
<wgt id='72'> +4.8359972e+02 </wgt>
<wgt id='73'> +4.8978252e+02 </wgt>
<wgt id='74'> +5.3221272e+02 </wgt>
<wgt id='75'> +5.1752672e+02 </wgt>
<wgt id='76'> +4.9639832e+02 </wgt>
<wgt id='77'> +4.9303243e+02 </wgt>
<wgt id='78'> +4.8646147e+02 </wgt>
<wgt id='79'> +4.9675785e+02 </wgt>
<wgt id='80'> +4.9197394e+02 </wgt>
<wgt id='81'> +4.9561959e+02 </wgt>
<wgt id='82'> +5.0208036e+02 </wgt>
<wgt id='83'> +5.1282480e+02 </wgt>
<wgt id='84'> +5.4502243e+02 </wgt>
<wgt id='85'> +5.1707953e+02 </wgt>
<wgt id='86'> +5.0734284e+02 </wgt>
<wgt id='87'> +5.0745313e+02 </wgt>
<wgt id='88'> +5.0930625e+02 </wgt>
<wgt id='89'> +5.1084455e+02 </wgt>
<wgt id='90'> +5.1256476e+02 </wgt>
<wgt id='91'> +5.2005422e+02 </wgt>
<wgt id='92'> +4.6027578e+02 </wgt>
<wgt id='93'> +5.0166462e+02 </wgt>
<wgt id='94'> +4.9230970e+02 </wgt>
<wgt id='95'> +4.9476582e+02 </wgt>
<wgt id='96'> +5.4316053e+02 </wgt>
<wgt id='97'> +5.0107239e+02 </wgt>
<wgt id='98'> +4.9238244e+02 </wgt>
<wgt id='99'> +4.7976405e+02 </wgt>
<wgt id='100'> +4.7451018e+02 </wgt>
<wgt id='101'> +5.5257727e+02 </wgt>
<wgt id='102'> +5.1472899e+02 </wgt>
<wgt id='103'> +5.4340796e+02 </wgt>
<wgt id='104'> +5.0994955e+02 </wgt>
<wgt id='105'> +5.2061722e+02 </wgt>
<wgt id='106'> +4.6088407e+02 </wgt>
<wgt id='107'> +4.8405847e+02 </wgt>
<wgt id='108'> +4.4710036e+02 </wgt>
<wgt id='109'> +4.7479809e+02 </wgt>
<wgt id='110'> +4.9994255e+02 </wgt>
<wgt id='111'> +4.9077041e+02 </wgt>
<wgt id='112'> +4.7957139e+02 </wgt>
<wgt id='113'> +4.6795381e+02 </wgt>
<wgt id='114'> +4.9563184e+02 </wgt>
<wgt id='115'> +4.8444634e+02 </wgt>
<wgt id='116'> +5.2015144e+02 </wgt>
<wgt id='117'> +5.0185897e+02 </wgt>
<wgt id='118'> +5.2732968e+02 </wgt>
<wgt id='119'> +4.9176557e+02 </wgt>
<wgt id='120'> +4.9491875e+02 </wgt>
<wgt id='121'> +4.9337500e+02 </wgt>
<wgt id='122'> +4.9884640e+02 </wgt>
<wgt id='123'> +5.0903784e+02 </wgt>
<wgt id='124'> +5.5487573e+02 </wgt>
<wgt id='125'> +5.6000375e+02 </wgt>
<wgt id='126'> +5.2135820e+02 </wgt>
<wgt id='127'> +5.1781424e+02 </wgt>
<wgt id='128'> +4.6214456e+02 </wgt>
<wgt id='129'> +5.6533597e+02 </wgt>
<wgt id='130'> +5.0266169e+02 </wgt>
<wgt id='131'> +5.2752926e+02 </wgt>
<wgt id='132'> +5.2270418e+02 </wgt>
<wgt id='133'> +5.1608137e+02 </wgt>
<wgt id='134'> +4.8811234e+02 </wgt>
<wgt id='135'> +5.1219921e+02 </wgt>
<wgt id='136'> +5.1327728e+02 </wgt>
<wgt id='137'> +4.8402473e+02 </wgt>
<wgt id='138'> +4.7419124e+02 </wgt>
<wgt id='139'> +5.1883524e+02 </wgt>
<wgt id='140'> +5.2226029e+02 </wgt>
<wgt id='141'> +5.1277799e+02 </wgt>
<wgt id='142'> +4.7918668e+02 </wgt>
<wgt id='143'> +5.1142982e+02 </wgt>
<wgt id='144'> +4.9500425e+02 </wgt>
<wgt id='145'> +5.0186299e+02 </wgt>
</rwgt>
</event>
<event>
 4      1 +5.0481800e+02 3.25434300e+02 7.54677100e-03 1.07317500e-01
       21 -1    0    0  501  502 +0.0000000000e+00 +0.0000000000e+00 +6.6625561736e+01 6.6625561736e+01 0.0000000000e+00 0.0000e+00 -1.0000e+00
       21 -1    0    0  502  503 -0.0000000000e+00 -0.0000000000e+00 -1.5915096326e+03 1.5915096326e+03 0.0000000000e+00 0.0000e+00 1.0000e+00
        6  1    1    2  501    0 +1.9336988555e+02 +1.9643462494e+02 -7.9121888303e+02 8.5553187865e+02 1.7300000000e+02 0.0000e+00 1.0000e+00
       -6  1    1    2    0  503 -1.9336988555e+02 -1.9643462494e+02 -7.3366518779e+02 8.0260331564e+02 1.7300000000e+02 0.0000e+00 -1.0000e+00
<mgrwt>
<rscale>  2 0.32543429E+03</rscale>
<asrwt>0</asrwt>
<pdfrwt beam="1">  1       21 0.10250088E-01 0.32543429E+03</pdfrwt>
<pdfrwt beam="2">  1       21 0.24484759E+00 0.32543429E+03</pdfrwt>
<totfact> 0.49922988E+03</totfact>
</mgrwt>
<rwgt>
<wgt id='1'> +6.9119027e+02 </wgt>
<wgt id='2'> +5.3785573e+02 </wgt>
<wgt id='3'> +5.0481800e+02 </wgt>
<wgt id='4'> +6.9119027e+02 </wgt>
<wgt id='5'> +5.0468475e+02 </wgt>
<wgt id='6'> +6.0299848e+02 </wgt>
<wgt id='7'> +4.7065328e+02 </wgt>
<wgt id='8'> +4.4232889e+02 </wgt>
<wgt id='9'> +6.0299848e+02 </wgt>
<wgt id='10'> +4.4221461e+02 </wgt>
<wgt id='11'> +5.2835605e+02 </wgt>
<wgt id='12'> +4.1449831e+02 </wgt>
<wgt id='13'> +3.9007011e+02 </wgt>
<wgt id='14'> +5.2835605e+02 </wgt>
<wgt id='15'> +3.8997148e+02 </wgt>
<wgt id='16'> +5.7865037e+02 </wgt>
<wgt id='17'> +4.5635862e+02 </wgt>
<wgt id='18'> +4.2950564e+02 </wgt>
<wgt id='19'> +5.7865037e+02 </wgt>
<wgt id='20'> +4.2939715e+02 </wgt>
<wgt id='21'> +3.9933884e+02 </wgt>
<wgt id='22'> +3.7633910e+02 </wgt>
<wgt id='23'> +5.0481800e+02 </wgt>
<wgt id='24'> +3.7624615e+02 </wgt>
<wgt id='25'> +4.4232888e+02 </wgt>
<wgt id='26'> +3.5169260e+02 </wgt>
<wgt id='27'> +3.3187666e+02 </wgt>
<wgt id='28'> +4.4232889e+02 </wgt>
<wgt id='29'> +3.3179652e+02 </wgt>
<wgt id='30'> +4.9232316e+02 </wgt>
<wgt id='31'> +3.9207107e+02 </wgt>
<wgt id='32'> +3.6987126e+02 </wgt>
<wgt id='33'> +4.9232317e+02 </wgt>
<wgt id='34'> +3.6978142e+02 </wgt>
<wgt id='35'> +4.2950564e+02 </wgt>
<wgt id='36'> +3.4308371e+02 </wgt>
<wgt id='37'> +3.2408659e+02 </wgt>
<wgt id='38'> +4.2950564e+02 </wgt>
<wgt id='39'> +3.2400968e+02 </wgt>
<wgt id='40'> +3.7633909e+02 </wgt>
<wgt id='41'> +3.0214942e+02 </wgt>
<wgt id='42'> +2.8579751e+02 </wgt>
<wgt id='43'> +3.7633910e+02 </wgt>
<wgt id='44'> +2.8573125e+02 </wgt>
<wgt id='45'> +5.0481800e+02 </wgt>
<wgt id='46'> +5.1506504e+02 </wgt>
<wgt id='47'> +5.5231677e+02 </wgt>
<wgt id='48'> +5.0475840e+02 </wgt>
<wgt id='49'> +4.5223125e+02 </wgt>
<wgt id='50'> +6.0041263e+02 </wgt>
<wgt id='51'> +4.7256946e+02 </wgt>
<wgt id='52'> +4.4206236e+02 </wgt>
<wgt id='53'> +5.2969841e+02 </wgt>
<wgt id='54'> +5.3910138e+02 </wgt>
<wgt id='55'> +5.9450303e+02 </wgt>
<wgt id='56'> +4.8854696e+02 </wgt>
<wgt id='57'> +5.4053084e+02 </wgt>
<wgt id='58'> +4.3903680e+02 </wgt>
<wgt id='59'> +5.4495870e+02 </wgt>
<wgt id='60'> +4.8899687e+02 </wgt>
<wgt id='61'> +4.1228266e+02 </wgt>
<wgt id='62'> +4.4781993e+02 </wgt>
<wgt id='63'> +5.3781418e+02 </wgt>
<wgt id='64'> +5.0530637e+02 </wgt>
<wgt id='65'> +4.3067034e+02 </wgt>
<wgt id='66'> +5.1992246e+02 </wgt>
<wgt id='67'> +5.0738014e+02 </wgt>
<wgt id='68'> +6.6758641e+02 </wgt>
<wgt id='69'> +5.8005740e+02 </wgt>
<wgt id='70'> +5.9261444e+02 </wgt>
<wgt id='71'> +4.5000327e+02 </wgt>
<wgt id='72'> +4.3519182e+02 </wgt>
<wgt id='73'> +4.4562354e+02 </wgt>
<wgt id='74'> +6.1839401e+02 </wgt>
<wgt id='75'> +5.8958450e+02 </wgt>
<wgt id='76'> +5.1847499e+02 </wgt>
<wgt id='77'> +4.5536523e+02 </wgt>
<wgt id='78'> +4.1972905e+02 </wgt>
<wgt id='79'> +5.6031901e+02 </wgt>
<wgt id='80'> +4.2115068e+02 </wgt>
<wgt id='81'> +5.4209539e+02 </wgt>
<wgt id='82'> +5.0417372e+02 </wgt>
<wgt id='83'> +5.0381519e+02 </wgt>
<wgt id='84'> +4.7532769e+02 </wgt>
<wgt id='85'> +4.3601056e+02 </wgt>
<wgt id='86'> +5.4881922e+02 </wgt>
<wgt id='87'> +4.8595590e+02 </wgt>
<wgt id='88'> +5.0952630e+02 </wgt>
<wgt id='89'> +3.7656225e+02 </wgt>
<wgt id='90'> +4.3838176e+02 </wgt>
<wgt id='91'> +4.0902103e+02 </wgt>
<wgt id='92'> +4.7265620e+02 </wgt>
<wgt id='93'> +5.1767949e+02 </wgt>
<wgt id='94'> +4.5247512e+02 </wgt>
<wgt id='95'> +5.2614248e+02 </wgt>
<wgt id='96'> +5.2931445e+02 </wgt>
<wgt id='97'> +4.3996359e+02 </wgt>
<wgt id='98'> +5.7859402e+02 </wgt>
<wgt id='99'> +3.9828191e+02 </wgt>
<wgt id='100'> +3.5210919e+02 </wgt>
<wgt id='101'> +5.9950966e+02 </wgt>
<wgt id='102'> +5.8256511e+02 </wgt>
<wgt id='103'> +4.5321848e+02 </wgt>
<wgt id='104'> +5.6039544e+02 </wgt>
<wgt id='105'> +5.1434449e+02 </wgt>
<wgt id='106'> +5.0210450e+02 </wgt>
<wgt id='107'> +5.0487220e+02 </wgt>
<wgt id='108'> +4.7345453e+02 </wgt>
<wgt id='109'> +5.0084924e+02 </wgt>
<wgt id='110'> +4.3532695e+02 </wgt>
<wgt id='111'> +4.8195229e+02 </wgt>
<wgt id='112'> +5.3024193e+02 </wgt>
<wgt id='113'> +5.7045192e+02 </wgt>
<wgt id='114'> +5.1635061e+02 </wgt>
<wgt id='115'> +4.7324014e+02 </wgt>
<wgt id='116'> +5.6970291e+02 </wgt>
<wgt id='117'> +5.0497679e+02 </wgt>
<wgt id='118'> +5.0949524e+02 </wgt>
<wgt id='119'> +5.6383456e+02 </wgt>
<wgt id='120'> +5.0264910e+02 </wgt>
<wgt id='121'> +4.7657323e+02 </wgt>
<wgt id='122'> +4.8425644e+02 </wgt>
<wgt id='123'> +4.6540726e+02 </wgt>
<wgt id='124'> +5.6821493e+02 </wgt>
<wgt id='125'> +6.8062802e+02 </wgt>
<wgt id='126'> +4.8585830e+02 </wgt>
<wgt id='127'> +4.6612398e+02 </wgt>
<wgt id='128'> +5.0194244e+02 </wgt>
<wgt id='129'> +4.9437585e+02 </wgt>
<wgt id='130'> +5.2193550e+02 </wgt>
<wgt id='131'> +4.4273736e+02 </wgt>
<wgt id='132'> +5.4153591e+02 </wgt>
<wgt id='133'> +5.5886425e+02 </wgt>
<wgt id='134'> +5.4632081e+02 </wgt>
<wgt id='135'> +4.7369631e+02 </wgt>
<wgt id='136'> +6.0776413e+02 </wgt>
<wgt id='137'> +5.6810838e+02 </wgt>
<wgt id='138'> +5.4054784e+02 </wgt>
<wgt id='139'> +5.2169737e+02 </wgt>
<wgt id='140'> +4.8874255e+02 </wgt>
<wgt id='141'> +6.1984151e+02 </wgt>
<wgt id='142'> +2.9438713e+02 </wgt>
<wgt id='143'> +5.1068328e+02 </wgt>
<wgt id='144'> +4.4179663e+02 </wgt>
<wgt id='145'> +4.5657045e+02 </wgt>
</rwgt>
</event>
<event>
 4      1 +5.0481800e+02 1.85279800e+02 7.54677100e-03 1.16278900e-01
        1 -1    0    0  502    0 +0.0000000000e+00 +0.0000000000e+00 +2.5102665683e+02 2.5102665683e+02 0.0000000000e+00 0.0000e+00 1.0000e+00
       -1 -1    0    0    0  501 -0.0000000000e+00 -0.0000000000e+00 -1.7628932395e+02 1.7628932395e+02 0.0000000000e+00 0.0000e+00 -1.0000e+00
        6  1    1    2  502    0 -5.4612857591e+01 -3.7643658920e+01 -6.3813769925e+01 1.9596123725e+02 1.7300000000e+02 0.0000e+00 -1.0000e+00
       -6  1    1    2    0  501 +5.4612857591e+01 +3.7643658920e+01 +1.3855110280e+02 2.3135474354e+02 1.7300000000e+02 0.0000e+00 1.0000e+00
<mgrwt>
<rscale>  2 0.18527981E+03</rscale>
<asrwt>0</asrwt>
<pdfrwt beam="1">  1        1 0.38619486E-01 0.18527981E+03</pdfrwt>
<pdfrwt beam="2">  1       -1 0.27121434E-01 0.18527981E+03</pdfrwt>
<totfact> 0.13240749E+03</totfact>
</mgrwt>
<rwgt>
<wgt id='1'> +6.0981813e+02 </wgt>
<wgt id='2'> +5.6623326e+02 </wgt>
<wgt id='3'> +5.0481800e+02 </wgt>
<wgt id='4'> +6.0981812e+02 </wgt>
<wgt id='5'> +4.8948087e+02 </wgt>
<wgt id='6'> +6.2059691e+02 </wgt>
<wgt id='7'> +5.7463016e+02 </wgt>
<wgt id='8'> +5.1021643e+02 </wgt>
<wgt id='9'> +6.2059690e+02 </wgt>
<wgt id='10'> +4.9417063e+02 </wgt>
<wgt id='11'> +6.2723346e+02 </wgt>
<wgt id='12'> +5.7948309e+02 </wgt>
<wgt id='13'> +5.1290095e+02 </wgt>
<wgt id='14'> +6.2723345e+02 </wgt>
<wgt id='15'> +4.9635477e+02 </wgt>
<wgt id='16'> +4.9605012e+02 </wgt>
<wgt id='17'> +4.6706302e+02 </wgt>
<wgt id='18'> +4.2452868e+02 </wgt>
<wgt id='19'> +4.9605011e+02 </wgt>
<wgt id='20'> +4.1293216e+02 </wgt>
<wgt id='21'> +4.7398928e+02 </wgt>
<wgt id='22'> +4.2906851e+02 </wgt>
<wgt id='23'> +5.0481800e+02 </wgt>
<wgt id='24'> +4.1688849e+02 </wgt>
<wgt id='25'> +5.1021643e+02 </wgt>
<wgt id='26'> +4.7799227e+02 </wgt>
<wgt id='27'> +4.3132607e+02 </wgt>
<wgt id='28'> +5.1021643e+02 </wgt>
<wgt id='29'> +4.1873106e+02 </wgt>
<wgt id='30'> +4.1715529e+02 </wgt>
<wgt id='31'> +3.9506700e+02 </wgt>
<wgt id='32'> +3.6206645e+02 </wgt>
<wgt id='33'> +4.1715529e+02 </wgt>
<wgt id='34'> +3.5298446e+02 </wgt>
<wgt id='35'> +4.2452868e+02 </wgt>
<wgt id='36'> +4.0092560e+02 </wgt>
<wgt id='37'> +3.6593832e+02 </wgt>
<wgt id='38'> +4.2452868e+02 </wgt>
<wgt id='39'> +3.5636644e+02 </wgt>
<wgt id='40'> +4.2906851e+02 </wgt>
<wgt id='41'> +4.0431154e+02 </wgt>
<wgt id='42'> +3.6786372e+02 </wgt>
<wgt id='43'> +4.2906851e+02 </wgt>
<wgt id='44'> +3.5794151e+02 </wgt>
<wgt id='45'> +5.0481800e+02 </wgt>
<wgt id='46'> +5.1709133e+02 </wgt>
<wgt id='47'> +5.0637166e+02 </wgt>
<wgt id='48'> +4.8448617e+02 </wgt>
<wgt id='49'> +4.8003918e+02 </wgt>
<wgt id='50'> +4.5991143e+02 </wgt>
<wgt id='51'> +4.9269720e+02 </wgt>
<wgt id='52'> +5.3451272e+02 </wgt>
<wgt id='53'> +5.1663115e+02 </wgt>
<wgt id='54'> +4.9802298e+02 </wgt>
<wgt id='55'> +5.0152684e+02 </wgt>
<wgt id='56'> +5.6913646e+02 </wgt>
<wgt id='57'> +4.6180965e+02 </wgt>
<wgt id='58'> +5.2233411e+02 </wgt>
<wgt id='59'> +4.4342560e+02 </wgt>
<wgt id='60'> +5.0531821e+02 </wgt>
<wgt id='61'> +5.2215855e+02 </wgt>
<wgt id='62'> +5.3572914e+02 </wgt>
<wgt id='63'> +5.3871045e+02 </wgt>
<wgt id='64'> +5.0947493e+02 </wgt>
<wgt id='65'> +4.8756958e+02 </wgt>
<wgt id='66'> +4.9051685e+02 </wgt>
<wgt id='67'> +5.3912546e+02 </wgt>
<wgt id='68'> +4.4296963e+02 </wgt>
<wgt id='69'> +4.8618305e+02 </wgt>
<wgt id='70'> +5.1329380e+02 </wgt>
<wgt id='71'> +5.0352268e+02 </wgt>
<wgt id='72'> +4.8416281e+02 </wgt>
<wgt id='73'> +5.2266111e+02 </wgt>
<wgt id='74'> +4.6432255e+02 </wgt>
<wgt id='75'> +5.1092687e+02 </wgt>
<wgt id='76'> +5.2700074e+02 </wgt>
<wgt id='77'> +5.2972320e+02 </wgt>
<wgt id='78'> +5.0819284e+02 </wgt>
<wgt id='79'> +5.2988678e+02 </wgt>
<wgt id='80'> +5.5269075e+02 </wgt>
<wgt id='81'> +5.1566825e+02 </wgt>
<wgt id='82'> +4.8067048e+02 </wgt>
<wgt id='83'> +4.6278213e+02 </wgt>
<wgt id='84'> +4.9720126e+02 </wgt>
<wgt id='85'> +5.1027432e+02 </wgt>
<wgt id='86'> +5.3190034e+02 </wgt>
<wgt id='87'> +5.2323453e+02 </wgt>
<wgt id='88'> +4.9921675e+02 </wgt>
<wgt id='89'> +5.3372073e+02 </wgt>
<wgt id='90'> +5.5975596e+02 </wgt>
<wgt id='91'> +4.7010027e+02 </wgt>
<wgt id='92'> +5.1438634e+02 </wgt>
<wgt id='93'> +5.3406642e+02 </wgt>
<wgt id='94'> +5.5286371e+02 </wgt>
<wgt id='95'> +5.0180575e+02 </wgt>
<wgt id='96'> +4.8422785e+02 </wgt>
<wgt id='97'> +5.3346418e+02 </wgt>
<wgt id='98'> +5.1835955e+02 </wgt>
<wgt id='99'> +5.5793481e+02 </wgt>
<wgt id='100'> +4.9377932e+02 </wgt>
<wgt id='101'> +4.4052850e+02 </wgt>
<wgt id='102'> +4.9290676e+02 </wgt>
<wgt id='103'> +4.7243345e+02 </wgt>
<wgt id='104'> +4.6903589e+02 </wgt>
<wgt id='105'> +4.9084093e+02 </wgt>
<wgt id='106'> +5.2277111e+02 </wgt>
<wgt id='107'> +4.8254427e+02 </wgt>
<wgt id='108'> +5.5462833e+02 </wgt>
<wgt id='109'> +5.0107302e+02 </wgt>
<wgt id='110'> +5.4199343e+02 </wgt>
<wgt id='111'> +5.1284427e+02 </wgt>
<wgt id='112'> +4.9895986e+02 </wgt>
<wgt id='113'> +5.1212502e+02 </wgt>
<wgt id='114'> +4.8716421e+02 </wgt>
<wgt id='115'> +5.1355670e+02 </wgt>
<wgt id='116'> +4.6428970e+02 </wgt>
<wgt id='117'> +4.9298538e+02 </wgt>
<wgt id='118'> +4.7838137e+02 </wgt>
<wgt id='119'> +5.1199073e+02 </wgt>
<wgt id='120'> +5.0138917e+02 </wgt>
<wgt id='121'> +4.7998983e+02 </wgt>
<wgt id='122'> +5.0414652e+02 </wgt>
<wgt id='123'> +5.3963413e+02 </wgt>
<wgt id='124'> +4.6258550e+02 </wgt>
<wgt id='125'> +4.4127982e+02 </wgt>
<wgt id='126'> +5.3178036e+02 </wgt>
<wgt id='127'> +5.2138614e+02 </wgt>
<wgt id='128'> +5.2229290e+02 </wgt>
<wgt id='129'> +4.5014542e+02 </wgt>
<wgt id='130'> +4.7993889e+02 </wgt>
<wgt id='131'> +5.1522317e+02 </wgt>
<wgt id='132'> +4.8316915e+02 </wgt>
<wgt id='133'> +5.3594450e+02 </wgt>
<wgt id='134'> +4.9081809e+02 </wgt>
<wgt id='135'> +4.5952904e+02 </wgt>
<wgt id='136'> +5.1075361e+02 </wgt>
<wgt id='137'> +5.1099960e+02 </wgt>
<wgt id='138'> +5.1447653e+02 </wgt>
<wgt id='139'> +5.1839051e+02 </wgt>
<wgt id='140'> +4.8580116e+02 </wgt>
<wgt id='141'> +4.9566711e+02 </wgt>
<wgt id='142'> +5.7682289e+02 </wgt>
<wgt id='143'> +5.1246345e+02 </wgt>
<wgt id='144'> +5.1308272e+02 </wgt>
<wgt id='145'> +5.1559929e+02 </wgt>
</rwgt>
</event>
<event>
 4      1 +5.0481800e+02 1.84061100e+02 7.54677100e-03 1.16393000e-01
       21 -1    0    0  501  502 +0.0000000000e+00 +0.0000000000e+00 +2.6072494462e+02 2.6072494462e+02 0.0000000000e+00 0.0000e+00 -1.0000e+00
       21 -1    0    0  502  503 -0.0000000000e+00 -0.0000000000e+00 -1.3005741689e+02 1.3005741689e+02 0.0000000000e+00 0.0000e+00 -1.0000e+00
        6  1    1    2  501    0 +4.7555963014e+01 +4.1084075763e+01 +7.1216936332e+01 1.9735836167e+02 1.7300000000e+02 0.0000e+00 -1.0000e+00
       -6  1    1    2    0  503 -4.7555963014e+01 -4.1084075763e+01 +5.9450591402e+01 1.9342399985e+02 1.7300000000e+02 0.0000e+00 -1.0000e+00
<mgrwt>
<rscale>  2 0.18406105E+03</rscale>
<asrwt>0</asrwt>
<pdfrwt beam="1">  1       21 0.40111530E-01 0.18406105E+03</pdfrwt>
<pdfrwt beam="2">  1       21 0.20008833E-01 0.18406105E+03</pdfrwt>
<totfact> 0.13854121E+05</totfact>
</mgrwt>
<rwgt>
<wgt id='1'> +6.4081226e+02 </wgt>
<wgt id='2'> +5.5988742e+02 </wgt>
<wgt id='3'> +5.0481800e+02 </wgt>
<wgt id='4'> +6.4081226e+02 </wgt>
<wgt id='5'> +5.0474153e+02 </wgt>
<wgt id='6'> +6.2077697e+02 </wgt>
<wgt id='7'> +5.3558928e+02 </wgt>
<wgt id='8'> +4.7932499e+02 </wgt>
<wgt id='9'> +6.2077697e+02 </wgt>
<wgt id='10'> +4.7924971e+02 </wgt>
<wgt id='11'> +5.8942810e+02 </wgt>
<wgt id='12'> +5.0779054e+02 </wgt>
<wgt id='13'> +4.5417429e+02 </wgt>
<wgt id='14'> +5.8942810e+02 </wgt>
<wgt id='15'> +4.5410264e+02 </wgt>
<wgt id='16'> +5.2111076e+02 </wgt>
<wgt id='17'> +4.6461037e+02 </wgt>
<wgt id='18'> +4.2444417e+02 </wgt>
<wgt id='19'> +5.2111076e+02 </wgt>
<wgt id='20'> +4.2438572e+02 </wgt>
<wgt id='21'> +4.4444709e+02 </wgt>
<wgt id='22'> +4.0300999e+02 </wgt>
<wgt id='23'> +5.0481800e+02 </wgt>
<wgt id='24'> +4.0295224e+02 </wgt>
<wgt id='25'> +4.7932499e+02 </wgt>
<wgt id='26'> +4.2137892e+02 </wgt>
<wgt id='27'> +3.8186362e+02 </wgt>
<wgt id='28'> +4.7932499e+02 </wgt>
<wgt id='29'> +3.8180864e+02 </wgt>
<wgt id='30'> +4.3814290e+02 </wgt>
<wgt id='31'> +3.9390936e+02 </wgt>
<wgt id='32'> +3.6195087e+02 </wgt>
<wgt id='33'> +4.3814290e+02 </wgt>
<wgt id='34'> +3.6190402e+02 </wgt>
<wgt id='35'> +4.2444417e+02 </wgt>
<wgt id='36'> +3.7681438e+02 </wgt>
<wgt id='37'> +3.4367257e+02 </wgt>
<wgt id='38'> +4.2444417e+02 </wgt>
<wgt id='39'> +3.4362616e+02 </wgt>
<wgt id='40'> +4.0300999e+02 </wgt>
<wgt id='41'> +3.5725655e+02 </wgt>
<wgt id='42'> +3.2563970e+02 </wgt>
<wgt id='43'> +4.0300999e+02 </wgt>
<wgt id='44'> +3.2559550e+02 </wgt>
<wgt id='45'> +5.0481800e+02 </wgt>
<wgt id='46'> +5.0071600e+02 </wgt>
<wgt id='47'> +5.1983790e+02 </wgt>
<wgt id='48'> +5.0352322e+02 </wgt>
<wgt id='49'> +5.0413111e+02 </wgt>
<wgt id='50'> +5.7566491e+02 </wgt>
<wgt id='51'> +4.9520303e+02 </wgt>
<wgt id='52'> +5.0104652e+02 </wgt>
<wgt id='53'> +5.1389799e+02 </wgt>
<wgt id='54'> +5.0761134e+02 </wgt>
<wgt id='55'> +4.5322460e+02 </wgt>
<wgt id='56'> +4.7499606e+02 </wgt>
<wgt id='57'> +4.9181163e+02 </wgt>
<wgt id='58'> +5.1229871e+02 </wgt>
<wgt id='59'> +4.9327624e+02 </wgt>
<wgt id='60'> +4.8076312e+02 </wgt>
<wgt id='61'> +5.0037756e+02 </wgt>
<wgt id='62'> +4.9746433e+02 </wgt>
<wgt id='63'> +5.0526461e+02 </wgt>
<wgt id='64'> +5.0413816e+02 </wgt>
<wgt id='65'> +5.9382852e+02 </wgt>
<wgt id='66'> +4.9215120e+02 </wgt>
<wgt id='67'> +5.0936413e+02 </wgt>
<wgt id='68'> +5.3511928e+02 </wgt>
<wgt id='69'> +4.8714369e+02 </wgt>
<wgt id='70'> +4.9752345e+02 </wgt>
<wgt id='71'> +5.1455060e+02 </wgt>
<wgt id='72'> +4.9909999e+02 </wgt>
<wgt id='73'> +5.0046949e+02 </wgt>
<wgt id='74'> +5.1490779e+02 </wgt>
<wgt id='75'> +5.1449586e+02 </wgt>
<wgt id='76'> +4.9159298e+02 </wgt>
<wgt id='77'> +4.8406511e+02 </wgt>
<wgt id='78'> +5.0993102e+02 </wgt>
<wgt id='79'> +4.8199061e+02 </wgt>
<wgt id='80'> +5.0234877e+02 </wgt>
<wgt id='81'> +4.9749290e+02 </wgt>
<wgt id='82'> +5.2073333e+02 </wgt>
<wgt id='83'> +5.1262381e+02 </wgt>
<wgt id='84'> +5.5098923e+02 </wgt>
<wgt id='85'> +5.3062670e+02 </wgt>
<wgt id='86'> +4.9880644e+02 </wgt>
<wgt id='87'> +5.0326299e+02 </wgt>
<wgt id='88'> +5.1189785e+02 </wgt>
<wgt id='89'> +5.1452931e+02 </wgt>
<wgt id='90'> +5.0892765e+02 </wgt>
<wgt id='91'> +5.3787527e+02 </wgt>
<wgt id='92'> +4.7341557e+02 </wgt>
<wgt id='93'> +4.9385122e+02 </wgt>
<wgt id='94'> +5.0544690e+02 </wgt>
<wgt id='95'> +4.8661977e+02 </wgt>
<wgt id='96'> +5.3883614e+02 </wgt>
<wgt id='97'> +5.1512861e+02 </wgt>
<wgt id='98'> +4.8099978e+02 </wgt>
<wgt id='99'> +4.9227757e+02 </wgt>
<wgt id='100'> +5.0860855e+02 </wgt>
<wgt id='101'> +5.2104841e+02 </wgt>
<wgt id='102'> +4.8307079e+02 </wgt>
<wgt id='103'> +5.4375673e+02 </wgt>
<wgt id='104'> +5.0152187e+02 </wgt>
<wgt id='105'> +5.2763954e+02 </wgt>
<wgt id='106'> +4.7240222e+02 </wgt>
<wgt id='107'> +5.0617956e+02 </wgt>
<wgt id='108'> +4.6035215e+02 </wgt>
<wgt id='109'> +4.7922235e+02 </wgt>
<wgt id='110'> +5.0734915e+02 </wgt>
<wgt id='111'> +4.9447556e+02 </wgt>
<wgt id='112'> +4.8619150e+02 </wgt>
<wgt id='113'> +4.6769087e+02 </wgt>
<wgt id='114'> +5.1087167e+02 </wgt>
<wgt id='115'> +5.1311739e+02 </wgt>
<wgt id='116'> +4.9779742e+02 </wgt>
<wgt id='117'> +5.1399215e+02 </wgt>
<wgt id='118'> +5.1140959e+02 </wgt>
<wgt id='119'> +4.8783682e+02 </wgt>
<wgt id='120'> +5.0725621e+02 </wgt>
<wgt id='121'> +4.9325874e+02 </wgt>
<wgt id='122'> +4.9928379e+02 </wgt>
<wgt id='123'> +5.0941365e+02 </wgt>
<wgt id='124'> +5.3085324e+02 </wgt>
<wgt id='125'> +5.3281462e+02 </wgt>
<wgt id='126'> +5.2107034e+02 </wgt>
<wgt id='127'> +5.1718831e+02 </wgt>
<wgt id='128'> +4.7319849e+02 </wgt>
<wgt id='129'> +5.6814453e+02 </wgt>
<wgt id='130'> +5.0715080e+02 </wgt>
<wgt id='131'> +5.4046009e+02 </wgt>
<wgt id='132'> +4.9510865e+02 </wgt>
<wgt id='133'> +4.9664054e+02 </wgt>
<wgt id='134'> +4.7449131e+02 </wgt>
<wgt id='135'> +5.1763284e+02 </wgt>
<wgt id='136'> +4.8088949e+02 </wgt>
<wgt id='137'> +4.7390182e+02 </wgt>
<wgt id='138'> +4.5411927e+02 </wgt>
<wgt id='139'> +5.1188504e+02 </wgt>
<wgt id='140'> +5.3886828e+02 </wgt>
<wgt id='141'> +5.0245520e+02 </wgt>
<wgt id='142'> +5.1423228e+02 </wgt>
<wgt id='143'> +4.9815638e+02 </wgt>
<wgt id='144'> +5.0800454e+02 </wgt>
<wgt id='145'> +5.0583143e+02 </wgt>
</rwgt>
</event>
<event>
 4      1 +5.0481800e+02 1.94703400e+02 7.54677100e-03 1.15428600e-01
       21 -1    0    0  501  502 +0.0000000000e+00 +0.0000000000e+00 +4.4942006233e+01 4.4942006233e+01 0.0000000000e+00 0.0000e+00 1.0000e+00
       21 -1    0    0  502  503 -0.0000000000e+00 -0.0000000000e+00 -9.1581537064e+02 9.1581537064e+02 0.0000000000e+00 0.0000e+00 1.0000e+00
        6  1    1    2  501    0 -6.3485943446e+01 +6.2848713341e+01 -3.0046622812e+02 3.5803544521e+02 1.7300000000e+02 0.0000e+00 1.0000e+00
       -6  1    1    2    0  503 +6.3485943446e+01 -6.2848713341e+01 -5.7040713628e+02 6.0272193166e+02 1.7300000000e+02 0.0000e+00 1.0000e+00
<mgrwt>
<rscale>  2 0.19470343E+03</rscale>
<asrwt>0</asrwt>
<pdfrwt beam="1">  1       21 0.69141552E-02 0.19470343E+03</pdfrwt>
<pdfrwt beam="2">  1       21 0.14089466E+00 0.19470343E+03</pdfrwt>
<totfact> 0.54330153E+04</totfact>
</mgrwt>
<rwgt>
<wgt id='1'> +6.5743199e+02 </wgt>
<wgt id='2'> +6.5665240e+02 </wgt>
<wgt id='3'> +5.0481800e+02 </wgt>
<wgt id='4'> +6.5743199e+02 </wgt>
<wgt id='5'> +4.9721779e+02 </wgt>
<wgt id='6'> +6.1915018e+02 </wgt>
<wgt id='7'> +6.1836542e+02 </wgt>
<wgt id='8'> +4.6739235e+02 </wgt>
<wgt id='9'> +6.1915018e+02 </wgt>
<wgt id='10'> +4.6029094e+02 </wgt>
<wgt id='11'> +5.7324829e+02 </wgt>
<wgt id='12'> +5.7251227e+02 </wgt>
<wgt id='13'> +4.3283795e+02 </wgt>
<wgt id='14'> +5.7324829e+02 </wgt>
<wgt id='15'> +4.2628008e+02 </wgt>
<wgt id='16'> +5.3603070e+02 </wgt>
<wgt id='17'> +5.3547620e+02 </wgt>
<wgt id='18'> +4.2513010e+02 </wgt>
<wgt id='19'> +5.3603070e+02 </wgt>
<wgt id='20'> +4.1914545e+02 </wgt>
<wgt id='21'> +5.0425456e+02 </wgt>
<wgt id='22'> +3.9361227e+02 </wgt>
<wgt id='23'> +5.0481800e+02 </wgt>
<wgt id='24'> +3.8801679e+02 </wgt>
<wgt id='25'> +4.6739235e+02 </wgt>
<wgt id='26'> +4.6686298e+02 </wgt>
<wgt id='27'> +3.6451244e+02 </wgt>
<wgt id='28'> +4.6739235e+02 </wgt>
<wgt id='29'> +3.5934626e+02 </wgt>
<wgt id='30'> +4.5141573e+02 </wgt>
<wgt id='31'> +4.5098472e+02 </wgt>
<wgt id='32'> +3.6290592e+02 </wgt>
<wgt id='33'> +4.5141573e+02 </wgt>
<wgt id='34'> +3.5806297e+02 </wgt>
<wgt id='35'> +4.2513010e+02 </wgt>
<wgt id='36'> +4.2468946e+02 </wgt>
<wgt id='37'> +3.3600120e+02 </wgt>
<wgt id='38'> +4.2513010e+02 </wgt>
<wgt id='39'> +3.3147072e+02 </wgt>
<wgt id='40'> +3.9361227e+02 </wgt>
<wgt id='41'> +3.9319781e+02 </wgt>
<wgt id='42'> +3.1116057e+02 </wgt>
<wgt id='43'> +3.9361227e+02 </wgt>
<wgt id='44'> +3.0697838e+02 </wgt>
<wgt id='45'> +5.0481800e+02 </wgt>
<wgt id='46'> +5.1815430e+02 </wgt>
<wgt id='47'> +5.1569928e+02 </wgt>
<wgt id='48'> +5.0553626e+02 </wgt>
<wgt id='49'> +4.8479593e+02 </wgt>
<wgt id='50'> +5.9064857e+02 </wgt>
<wgt id='51'> +4.8570177e+02 </wgt>
<wgt id='52'> +4.9540930e+02 </wgt>
<wgt id='53'> +4.9725094e+02 </wgt>
<wgt id='54'> +5.2315114e+02 </wgt>
<wgt id='55'> +5.1716395e+02 </wgt>
<wgt id='56'> +4.6986363e+02 </wgt>
<wgt id='57'> +5.2288845e+02 </wgt>
<wgt id='58'> +4.8078565e+02 </wgt>
<wgt id='59'> +5.3914047e+02 </wgt>
<wgt id='60'> +5.1102122e+02 </wgt>
<wgt id='61'> +4.4435715e+02 </wgt>
<wgt id='62'> +4.8466337e+02 </wgt>
<wgt id='63'> +5.1651540e+02 </wgt>
<wgt id='64'> +5.0097452e+02 </wgt>
<wgt id='65'> +5.1390145e+02 </wgt>
<wgt id='66'> +5.0123138e+02 </wgt>
<wgt id='67'> +5.0665396e+02 </wgt>
<wgt id='68'> +5.7282534e+02 </wgt>
<wgt id='69'> +5.1593684e+02 </wgt>
<wgt id='70'> +5.1204010e+02 </wgt>
<wgt id='71'> +4.9518747e+02 </wgt>
<wgt id='72'> +4.8345589e+02 </wgt>
<wgt id='73'> +4.7664498e+02 </wgt>
<wgt id='74'> +5.4795368e+02 </wgt>
<wgt id='75'> +5.2337269e+02 </wgt>
<wgt id='76'> +5.0949883e+02 </wgt>
<wgt id='77'> +4.9254409e+02 </wgt>
<wgt id='78'> +4.6282730e+02 </wgt>
<wgt id='79'> +5.1586938e+02 </wgt>
<wgt id='80'> +4.7542668e+02 </wgt>
<wgt id='81'> +5.0460156e+02 </wgt>
<wgt id='82'> +4.8776719e+02 </wgt>
<wgt id='83'> +5.0168848e+02 </wgt>
<wgt id='84'> +5.1798214e+02 </wgt>
<wgt id='85'> +4.8926203e+02 </wgt>
<wgt id='86'> +5.1372823e+02 </wgt>
<wgt id='87'> +5.0589772e+02 </wgt>
<wgt id='88'> +4.9671505e+02 </wgt>
<wgt id='89'> +4.8375055e+02 </wgt>
<wgt id='90'> +5.0191117e+02 </wgt>
<wgt id='91'> +4.8550157e+02 </wgt>
<wgt id='92'> +4.7010801e+02 </wgt>
<wgt id='93'> +5.0574483e+02 </wgt>
<wgt id='94'> +4.7962151e+02 </wgt>
<wgt id='95'> +5.1737972e+02 </wgt>
<wgt id='96'> +5.2877796e+02 </wgt>
<wgt id='97'> +4.8252762e+02 </wgt>
<wgt id='98'> +5.1174138e+02 </wgt>
<wgt id='99'> +4.5942283e+02 </wgt>
<wgt id='100'> +4.3803919e+02 </wgt>
<wgt id='101'> +5.7013430e+02 </wgt>
<wgt id='102'> +5.4062229e+02 </wgt>
<wgt id='103'> +5.1881235e+02 </wgt>
<wgt id='104'> +5.1870853e+02 </wgt>
<wgt id='105'> +5.2006992e+02 </wgt>
<wgt id='106'> +4.7516366e+02 </wgt>
<wgt id='107'> +4.8141589e+02 </wgt>
<wgt id='108'> +4.5895864e+02 </wgt>
<wgt id='109'> +4.8911766e+02 </wgt>
<wgt id='110'> +4.8901971e+02 </wgt>
<wgt id='111'> +4.9342438e+02 </wgt>
<wgt id='112'> +4.9829465e+02 </wgt>
<wgt id='113'> +4.9214999e+02 </wgt>
<wgt id='114'> +5.0704220e+02 </wgt>
<wgt id='115'> +4.6809954e+02 </wgt>
<wgt id='116'> +5.3401332e+02 </wgt>
<wgt id='117'> +4.9380331e+02 </wgt>
<wgt id='118'> +5.2696620e+02 </wgt>
<wgt id='119'> +5.1774781e+02 </wgt>
<wgt id='120'> +4.9891010e+02 </wgt>
<wgt id='121'> +5.0272056e+02 </wgt>
<wgt id='122'> +4.9912571e+02 </wgt>
<wgt id='123'> +4.9756629e+02 </wgt>
<wgt id='124'> +5.6294428e+02 </wgt>
<wgt id='125'> +5.8660064e+02 </wgt>
<wgt id='126'> +5.0819095e+02 </wgt>
<wgt id='127'> +5.0430485e+02 </wgt>
<wgt id='128'> +4.6737637e+02 </wgt>
<wgt id='129'> +5.4332331e+02 </wgt>
<wgt id='130'> +4.8751400e+02 </wgt>
<wgt id='131'> +4.9980725e+02 </wgt>
<wgt id='132'> +5.4636032e+02 </wgt>
<wgt id='133'> +5.3243150e+02 </wgt>
<wgt id='134'> +5.0980845e+02 </wgt>
<wgt id='135'> +4.9963042e+02 </wgt>
<wgt id='136'> +5.5781127e+02 </wgt>
<wgt id='137'> +4.9831667e+02 </wgt>
<wgt id='138'> +4.9008134e+02 </wgt>
<wgt id='139'> +5.2045552e+02 </wgt>
<wgt id='140'> +5.0508537e+02 </wgt>
<wgt id='141'> +5.3231718e+02 </wgt>
<wgt id='142'> +4.3134620e+02 </wgt>
<wgt id='143'> +5.2009196e+02 </wgt>
<wgt id='144'> +4.8202643e+02 </wgt>
<wgt id='145'> +4.8590649e+02 </wgt>
</rwgt>
</event>
<event>
 4      1 +5.0481800e+02 1.81234600e+02 7.54677100e-03 1.16661400e-01
       21 -1    0    0  503  502 +0.0000000000e+00 +0.0000000000e+00 +4.4980392073e+01 4.4980392073e+01 0.0000000000e+00 0.0000e+00 1.0000e+00
       21 -1    0    0  501  503 -0.0000000000e+00 -0.0000000000e+00 -7.5460272025e+02 7.5460272025e+02 0.0000000000e+00 0.0000e+00 -1.0000e+00
        6  1    1    2  501    0 -5.3010116336e+01 +1.0339676398e+01 -4.2666275870e+02 4.6355915588e+02 1.7300000000e+02 0.0000e+00 1.0000e+00
       -6  1    1    2    0  502 +5.3010116336e+01 -1.0339676398e+01 -2.8295956947e+02 3.3602395643e+02 1.7300000000e+02 0.0000e+00 1.0000e+00
<mgrwt>
<rscale>  2 0.18123460E+03</rscale>
<asrwt>0</asrwt>
<pdfrwt beam="1">  1       21 0.69200599E-02 0.18123460E+03</pdfrwt>
<pdfrwt beam="2">  1       21 0.11609273E+00 0.18123460E+03</pdfrwt>
<totfact> 0.88841425E+04</totfact>
</mgrwt>
<rwgt>
<wgt id='1'> +6.5022800e+02 </wgt>
<wgt id='2'> +7.5831906e+02 </wgt>
<wgt id='3'> +5.0481800e+02 </wgt>
<wgt id='4'> +6.5022800e+02 </wgt>
<wgt id='5'> +5.0189146e+02 </wgt>
<wgt id='6'> +6.2121701e+02 </wgt>
<wgt id='7'> +7.2892409e+02 </wgt>
<wgt id='8'> +4.7302991e+02 </wgt>
<wgt id='9'> +6.2121700e+02 </wgt>
<wgt id='10'> +4.7019850e+02 </wgt>
<wgt id='11'> +5.8209935e+02 </wgt>
<wgt id='12'> +6.9011312e+02 </wgt>
<wgt id='13'> +4.4261168e+02 </wgt>
<wgt id='14'> +5.8209935e+02 </wgt>
<wgt id='15'> +4.3995904e+02 </wgt>
<wgt id='16'> +5.2839313e+02 </wgt>
<wgt id='17'> +6.0715544e+02 </wgt>
<wgt id='18'> +4.2424156e+02 </wgt>
<wgt id='19'> +5.2839313e+02 </wgt>
<wgt id='20'> +4.2199563e+02 </wgt>
<wgt id='21'> +5.8362008e+02 </wgt>
<wgt id='22'> +3.9752732e+02 </wgt>
<wgt id='23'> +5.0481800e+02 </wgt>
<wgt id='24'> +3.9534785e+02 </wgt>
<wgt id='25'> +4.7302992e+02 </wgt>
<wgt id='26'> +5.5254570e+02 </wgt>
<wgt id='27'> +3.7196429e+02 </wgt>
<wgt id='28'> +4.7302991e+02 </wgt>
<wgt id='29'> +3.6992220e+02 </wgt>
<wgt id='30'> +4.4405375e+02 </wgt>
<wgt id='31'> +5.0095873e+02 </wgt>
<wgt id='32'> +3.6167600e+02 </wgt>
<wgt id='33'> +4.4405375e+02 </wgt>
<wgt id='34'> +3.5986901e+02 </wgt>
<wgt id='35'> +4.2424156e+02 </wgt>
<wgt id='36'> +4.8153990e+02 </wgt>
<wgt id='37'> +3.3890148e+02 </wgt>
<wgt id='38'> +4.2424156e+02 </wgt>
<wgt id='39'> +3.3714435e+02 </wgt>
<wgt id='40'> +3.9752733e+02 </wgt>
<wgt id='41'> +4.5590070e+02 </wgt>
<wgt id='42'> +3.1710839e+02 </wgt>
<wgt id='43'> +3.9752732e+02 </wgt>
<wgt id='44'> +3.1546189e+02 </wgt>
<wgt id='45'> +5.0481800e+02 </wgt>
<wgt id='46'> +5.1580228e+02 </wgt>
<wgt id='47'> +5.1560746e+02 </wgt>
<wgt id='48'> +5.0610977e+02 </wgt>
<wgt id='49'> +4.9268676e+02 </wgt>
<wgt id='50'> +5.8779196e+02 </wgt>
<wgt id='51'> +4.9021228e+02 </wgt>
<wgt id='52'> +5.0157626e+02 </wgt>
<wgt id='53'> +4.9701529e+02 </wgt>
<wgt id='54'> +5.1685769e+02 </wgt>
<wgt id='55'> +4.9702508e+02 </wgt>
<wgt id='56'> +4.6713125e+02 </wgt>
<wgt id='57'> +5.1454486e+02 </wgt>
<wgt id='58'> +4.9112753e+02 </wgt>
<wgt id='59'> +5.3051535e+02 </wgt>
<wgt id='60'> +5.0955552e+02 </wgt>
<wgt id='61'> +4.4085316e+02 </wgt>
<wgt id='62'> +4.9135833e+02 </wgt>
<wgt id='63'> +5.1081626e+02 </wgt>
<wgt id='64'> +4.9911113e+02 </wgt>
<wgt id='65'> +5.3494545e+02 </wgt>
<wgt id='66'> +4.9805104e+02 </wgt>
<wgt id='67'> +5.0694683e+02 </wgt>
<wgt id='68'> +5.5963036e+02 </wgt>
<wgt id='69'> +5.0579131e+02 </wgt>
<wgt id='70'> +5.0403117e+02 </wgt>
<wgt id='71'> +5.0365871e+02 </wgt>
<wgt id='72'> +4.8925030e+02 </wgt>
<wgt id='73'> +4.8571505e+02 </wgt>
<wgt id='74'> +5.3731151e+02 </wgt>
<wgt id='75'> +5.1728589e+02 </wgt>
<wgt id='76'> +5.0407898e+02 </wgt>
<wgt id='77'> +4.9526616e+02 </wgt>
<wgt id='78'> +4.7561188e+02 </wgt>
<wgt id='79'> +5.0656195e+02 </wgt>
<wgt id='80'> +4.8568565e+02 </wgt>
<wgt id='81'> +4.9979565e+02 </wgt>
<wgt id='82'> +4.9222617e+02 </wgt>
<wgt id='83'> +5.0457443e+02 </wgt>
<wgt id='84'> +5.2781635e+02 </wgt>
<wgt id='85'> +5.0283694e+02 </wgt>
<wgt id='86'> +5.0870613e+02 </wgt>
<wgt id='87'> +5.0740781e+02 </wgt>
<wgt id='88'> +5.0066043e+02 </wgt>
<wgt id='89'> +5.0057446e+02 </wgt>
<wgt id='90'> +5.1022203e+02 </wgt>
<wgt id='91'> +5.0315737e+02 </wgt>
<wgt id='92'> +4.6941893e+02 </wgt>
<wgt id='93'> +5.0385271e+02 </wgt>
<wgt id='94'> +4.8744338e+02 </wgt>
<wgt id='95'> +5.0842113e+02 </wgt>
<wgt id='96'> +5.3102041e+02 </wgt>
<wgt id='97'> +4.9263404e+02 </wgt>
<wgt id='98'> +5.0130094e+02 </wgt>
<wgt id='99'> +4.7300981e+02 </wgt>
<wgt id='100'> +4.6048043e+02 </wgt>
<wgt id='101'> +5.5938683e+02 </wgt>
<wgt id='102'> +5.2656649e+02 </wgt>
<wgt id='103'> +5.3106715e+02 </wgt>
<wgt id='104'> +5.1116586e+02 </wgt>
<wgt id='105'> +5.2113986e+02 </wgt>
<wgt id='106'> +4.7057096e+02 </wgt>
<wgt id='107'> +4.8347412e+02 </wgt>
<wgt id='108'> +4.5503661e+02 </wgt>
<wgt id='109'> +4.8422375e+02 </wgt>
<wgt id='110'> +4.9734455e+02 </wgt>
<wgt id='111'> +4.9326346e+02 </wgt>
<wgt id='112'> +4.8802620e+02 </wgt>
<wgt id='113'> +4.8062713e+02 </wgt>
<wgt id='114'> +5.0116001e+02 </wgt>
<wgt id='115'> +4.7388545e+02 </wgt>
<wgt id='116'> +5.2472273e+02 </wgt>
<wgt id='117'> +4.9624974e+02 </wgt>
<wgt id='118'> +5.2653834e+02 </wgt>
<wgt id='119'> +5.0477455e+02 </wgt>
<wgt id='120'> +4.9518779e+02 </wgt>
<wgt id='121'> +5.0118404e+02 </wgt>
<wgt id='122'> +5.0000282e+02 </wgt>
<wgt id='123'> +5.0234400e+02 </wgt>
<wgt id='124'> +5.5672773e+02 </wgt>
<wgt id='125'> +5.6899534e+02 </wgt>
<wgt id='126'> +5.1370485e+02 </wgt>
<wgt id='127'> +5.1137796e+02 </wgt>
<wgt id='128'> +4.6298268e+02 </wgt>
<wgt id='129'> +5.5306624e+02 </wgt>
<wgt id='130'> +4.9283613e+02 </wgt>
<wgt id='131'> +5.1407153e+02 </wgt>
<wgt id='132'> +5.3767761e+02 </wgt>
<wgt id='133'> +5.2340380e+02 </wgt>
<wgt id='134'> +5.0044197e+02 </wgt>
<wgt id='135'> +5.0652455e+02 </wgt>
<wgt id='136'> +5.3753919e+02 </wgt>
<wgt id='137'> +4.8912703e+02 </wgt>
<wgt id='138'> +4.7933775e+02 </wgt>
<wgt id='139'> +5.1993098e+02 </wgt>
<wgt id='140'> +5.1263250e+02 </wgt>
<wgt id='141'> +5.1941707e+02 </wgt>
<wgt id='142'> +4.6074767e+02 </wgt>
<wgt id='143'> +5.1800356e+02 </wgt>
<wgt id='144'> +4.9131881e+02 </wgt>
<wgt id='145'> +4.9446060e+02 </wgt>
</rwgt>
</event>
<event>
 4      1 +5.0481800e+02 3.02237400e+02 7.54677100e-03 1.08412700e-01
       21 -1    0    0  501  502 +0.0000000000e+00 +0.0000000000e+00 +1.1581523628e+03 1.1581523628e+03 0.0000000000e+00 0.0000e+00 1.0000e+00
       21 -1    0    0  502  503 -0.0000000000e+00 -0.0000000000e+00 -2.0884561731e+02 2.0884561731e+02 0.0000000000e+00 0.0000e+00 -1.0000e+00
        6  1    1    2  501    0 -2.3075533046e+02 +9.0390253913e+01 +1.0138540756e+03 1.0579449452e+03 1.7300000000e+02 0.0000e+00 1.0000e+00
       -6  1    1    2    0  503 +2.3075533046e+02 -9.0390253913e+01 -6.4547330121e+01 3.0905303487e+02 1.7300000000e+02 0.0000e+00 -1.0000e+00
<mgrwt>
<rscale>  2 0.30223736E+03</rscale>
<asrwt>0</asrwt>
<pdfrwt beam="1">  1       21 0.17817728E+00 0.30223736E+03</pdfrwt>
<pdfrwt beam="2">  1       21 0.32130096E-01 0.30223736E+03</pdfrwt>
<totfact> 0.15944606E+03</totfact>
</mgrwt>
<rwgt>
<wgt id='1'> +6.9351874e+02 </wgt>
<wgt id='2'> +5.2634380e+02 </wgt>
<wgt id='3'> +5.0481800e+02 </wgt>
<wgt id='4'> +6.9351874e+02 </wgt>
<wgt id='5'> +4.0902573e+02 </wgt>
<wgt id='6'> +6.0498571e+02 </wgt>
<wgt id='7'> +4.6007318e+02 </wgt>
<wgt id='8'> +4.4164216e+02 </wgt>
<wgt id='9'> +6.0498571e+02 </wgt>
<wgt id='10'> +3.5944520e+02 </wgt>
<wgt id='11'> +5.2927430e+02 </wgt>
<wgt id='12'> +4.0471778e+02 </wgt>
<wgt id='13'> +3.8883588e+02 </wgt>
<wgt id='14'> +5.2927430e+02 </wgt>
<wgt id='15'> +3.1784002e+02 </wgt>
<wgt id='16'> +5.7869258e+02 </wgt>
<wgt id='17'> +4.4637891e+02 </wgt>
<wgt id='18'> +4.2890410e+02 </wgt>
<wgt id='19'> +5.7869258e+02 </wgt>
<wgt id='20'> +3.5059776e+02 </wgt>
<wgt id='21'> +3.9017647e+02 </wgt>
<wgt id='22'> +3.7522856e+02 </wgt>
<wgt id='23'> +5.0481800e+02 </wgt>
<wgt id='24'> +3.0809964e+02 </wgt>
<wgt id='25'> +4.4164216e+02 </wgt>
<wgt id='26'> +3.4323095e+02 </wgt>
<wgt id='27'> +3.3036323e+02 </wgt>
<wgt id='28'> +4.4164216e+02 </wgt>
<wgt id='29'> +2.7243763e+02 </wgt>
<wgt id='30'> +4.9166951e+02 </wgt>
<wgt id='31'> +3.8334290e+02 </wgt>
<wgt id='32'> +3.6891074e+02 </wgt>
<wgt id='33'> +4.9166952e+02 </wgt>
<wgt id='34'> +3.0384965e+02 </wgt>
<wgt id='35'> +4.2890410e+02 </wgt>
<wgt id='36'> +3.3507717e+02 </wgt>
<wgt id='37'> +3.2274312e+02 </wgt>
<wgt id='38'> +4.2890410e+02 </wgt>
<wgt id='39'> +2.6701816e+02 </wgt>
<wgt id='40'> +3.7522856e+02 </wgt>
<wgt id='41'> +2.9476112e+02 </wgt>
<wgt id='42'> +2.8415337e+02 </wgt>
<wgt id='43'> +3.7522856e+02 </wgt>
<wgt id='44'> +2.3611126e+02 </wgt>
<wgt id='45'> +5.0481800e+02 </wgt>
<wgt id='46'> +5.2588379e+02 </wgt>
<wgt id='47'> +5.3214225e+02 </wgt>
<wgt id='48'> +5.1065880e+02 </wgt>
<wgt id='49'> +4.7095533e+02 </wgt>
<wgt id='50'> +6.3132600e+02 </wgt>
<wgt id='51'> +4.7804936e+02 </wgt>
<wgt id='52'> +4.7862878e+02 </wgt>
<wgt id='53'> +5.0280130e+02 </wgt>
<wgt id='54'> +5.3212499e+02 </wgt>
<wgt id='55'> +5.3316914e+02 </wgt>
<wgt id='56'> +4.6604258e+02 </wgt>
<wgt id='57'> +5.2659828e+02 </wgt>
<wgt id='58'> +4.5625960e+02 </wgt>
<wgt id='59'> +5.4743233e+02 </wgt>
<wgt id='60'> +5.0369714e+02 </wgt>
<wgt id='61'> +4.3897681e+02 </wgt>
<wgt id='62'> +4.7258621e+02 </wgt>
<wgt id='63'> +5.2653339e+02 </wgt>
<wgt id='64'> +4.9581677e+02 </wgt>
<wgt id='65'> +4.9845717e+02 </wgt>
<wgt id='66'> +5.0900161e+02 </wgt>
<wgt id='67'> +5.0805578e+02 </wgt>
<wgt id='68'> +6.1356051e+02 </wgt>
<wgt id='69'> +5.5037603e+02 </wgt>
<wgt id='70'> +5.3096941e+02 </wgt>
<wgt id='71'> +4.7943793e+02 </wgt>
<wgt id='72'> +4.4931086e+02 </wgt>
<wgt id='73'> +4.5727035e+02 </wgt>
<wgt id='74'> +5.7982127e+02 </wgt>
<wgt id='75'> +5.4659035e+02 </wgt>
<wgt id='76'> +5.0977490e+02 </wgt>
<wgt id='77'> +4.8235801e+02 </wgt>
<wgt id='78'> +4.3924922e+02 </wgt>
<wgt id='79'> +5.3185034e+02 </wgt>
<wgt id='80'> +4.5381862e+02 </wgt>
<wgt id='81'> +5.1179053e+02 </wgt>
<wgt id='82'> +4.9258119e+02 </wgt>
<wgt id='83'> +5.0913077e+02 </wgt>
<wgt id='84'> +5.1643158e+02 </wgt>
<wgt id='85'> +4.7272101e+02 </wgt>
<wgt id='86'> +5.3091373e+02 </wgt>
<wgt id='87'> +5.0234425e+02 </wgt>
<wgt id='88'> +5.0280851e+02 </wgt>
<wgt id='89'> +4.5092036e+02 </wgt>
<wgt id='90'> +4.8156037e+02 </wgt>
<wgt id='91'> +4.5918046e+02 </wgt>
<wgt id='92'> +4.4924442e+02 </wgt>
<wgt id='93'> +5.1172271e+02 </wgt>
<wgt id='94'> +4.6261094e+02 </wgt>
<wgt id='95'> +5.1582787e+02 </wgt>
<wgt id='96'> +5.4801970e+02 </wgt>
<wgt id='97'> +4.6382084e+02 </wgt>
<wgt id='98'> +5.3177789e+02 </wgt>
<wgt id='99'> +4.3071144e+02 </wgt>
<wgt id='100'> +3.9223823e+02 </wgt>
<wgt id='101'> +6.0082477e+02 </wgt>
<wgt id='102'> +5.7025140e+02 </wgt>
<wgt id='103'> +5.0526275e+02 </wgt>
<wgt id='104'> +5.4147203e+02 </wgt>
<wgt id='105'> +5.1288987e+02 </wgt>
<wgt id='106'> +4.6522011e+02 </wgt>
<wgt id='107'> +4.7254570e+02 </wgt>
<wgt id='108'> +4.4899513e+02 </wgt>
<wgt id='109'> +4.8234150e+02 </wgt>
<wgt id='110'> +4.6729482e+02 </wgt>
<wgt id='111'> +4.8522381e+02 </wgt>
<wgt id='112'> +5.0668379e+02 </wgt>
<wgt id='113'> +5.0395022e+02 </wgt>
<wgt id='114'> +5.0474740e+02 </wgt>
<wgt id='115'> +4.6064450e+02 </wgt>
<wgt id='116'> +5.6125707e+02 </wgt>
<wgt id='117'> +4.9385671e+02 </wgt>
<wgt id='118'> +5.3416194e+02 </wgt>
<wgt id='119'> +5.3115935e+02 </wgt>
<wgt id='120'> +5.0018212e+02 </wgt>
<wgt id='121'> +4.8951681e+02 </wgt>
<wgt id='122'> +4.9224550e+02 </wgt>
<wgt id='123'> +4.9347875e+02 </wgt>
<wgt id='124'> +5.8470710e+02 </wgt>
<wgt id='125'> +6.3501347e+02 </wgt>
<wgt id='126'> +5.0740262e+02 </wgt>
<wgt id='127'> +4.9580366e+02 </wgt>
<wgt id='128'> +4.7395951e+02 </wgt>
<wgt id='129'> +5.3570320e+02 </wgt>
<wgt id='130'> +4.9782332e+02 </wgt>
<wgt id='131'> +4.8038796e+02 </wgt>
<wgt id='132'> +5.5036340e+02 </wgt>
<wgt id='133'> +5.5176389e+02 </wgt>
<wgt id='134'> +5.1838770e+02 </wgt>
<wgt id='135'> +4.8980464e+02 </wgt>
<wgt id='136'> +5.7927244e+02 </wgt>
<wgt id='137'> +5.2172863e+02 </wgt>
<wgt id='138'> +5.1854944e+02 </wgt>
<wgt id='139'> +5.2427472e+02 </wgt>
<wgt id='140'> +4.9691746e+02 </wgt>
<wgt id='141'> +5.6427111e+02 </wgt>
<wgt id='142'> +3.7476671e+02 </wgt>
<wgt id='143'> +5.1785252e+02 </wgt>
<wgt id='144'> +4.5885704e+02 </wgt>
<wgt id='145'> +4.7336991e+02 </wgt>
</rwgt>
</event>
<event>
 4      1 +5.0481800e+02 2.08378500e+02 7.54677100e-03 1.14285700e-01
       21 -1    0    0  503  502 +0.0000000000e+00 +0.0000000000e+00 +1.7035154172e+01 1.7035154172e+01 0.0000000000e+00 0.0000e+00 -1.0000e+00
       21 -1    0    0  501  503 -0.0000000000e+00 -0.0000000000e+00 -3.3651807820e+03 3.3651807820e+03 0.0000000000e+00 0.0000e+00 -1.0000e+00
        6  1    1    2  501    0 -9.0453019975e+01 +7.2875497945e+01 -2.5069409799e+03 2.5155863459e+03 1.7300000000e+02 0.0000e+00 -1.0000e+00
       -6  1    1    2    0  502 +9.0453019975e+01 -7.2875497945e+01 -8.4120464793e+02 8.6662959026e+02 1.7300000000e+02 0.0000e+00 -1.0000e+00
<mgrwt>
<rscale>  2 0.20837847E+03</rscale>
<asrwt>0</asrwt>
<pdfrwt beam="1">  1       21 0.26207934E-02 0.20837847E+03</pdfrwt>
<pdfrwt beam="2">  1       21 0.51772004E+00 0.20837847E+03</pdfrwt>
<totfact> 0.10933397E+03</totfact>
</mgrwt>
<rwgt>
<wgt id='1'> +7.6237753e+02 </wgt>
<wgt id='2'> +7.0748933e+02 </wgt>
<wgt id='3'> +5.0481800e+02 </wgt>
<wgt id='4'> +7.6237753e+02 </wgt>
<wgt id='5'> +4.6711346e+02 </wgt>
<wgt id='6'> +6.1688981e+02 </wgt>
<wgt id='7'> +5.7298690e+02 </wgt>
<wgt id='8'> +4.1224592e+02 </wgt>
<wgt id='9'> +6.1688981e+02 </wgt>
<wgt id='10'> +3.8312988e+02 </wgt>
<wgt id='11'> +5.0376633e+02 </wgt>
<wgt id='12'> +4.6970144e+02 </wgt>
<wgt id='13'> +3.4341332e+02 </wgt>
<wgt id='14'> +5.0376633e+02 </wgt>
<wgt id='15'> +3.2030255e+02 </wgt>
<wgt id='16'> +6.2387463e+02 </wgt>
<wgt id='17'> +5.8279859e+02 </wgt>
<wgt id='18'> +4.2579074e+02 </wgt>
<wgt id='19'> +6.2387463e+02 </wgt>
<wgt id='20'> +3.9505342e+02 </wgt>
<wgt id='21'> +4.7200140e+02 </wgt>
<wgt id='22'> +3.4771045e+02 </wgt>
<wgt id='23'> +5.0481800e+02 </wgt>
<wgt id='24'> +3.2402571e+02 </wgt>
<wgt id='25'> +4.1224592e+02 </wgt>
<wgt id='26'> +3.8691938e+02 </wgt>
<wgt id='27'> +2.8965333e+02 </wgt>
<wgt id='28'> +4.1224592e+02 </wgt>
<wgt id='29'> +2.7089054e+02 </wgt>
<wgt id='30'> +5.2620952e+02 </wgt>
<wgt id='31'> +4.9270358e+02 </wgt>
<wgt id='32'> +3.6391476e+02 </wgt>
<wgt id='33'> +5.2620952e+02 </wgt>
<wgt id='34'> +3.3846518e+02 </wgt>
<wgt id='35'> +4.2579074e+02 </wgt>
<wgt id='36'> +3.9903457e+02 </wgt>
<wgt id='37'> +2.9718112e+02 </wgt>
<wgt id='38'> +4.2579074e+02 </wgt>
<wgt id='39'> +2.7761163e+02 </wgt>
<wgt id='40'> +3.4771045e+02 </wgt>
<wgt id='41'> +3.2710541e+02 </wgt>
<wgt id='42'> +2.4756086e+02 </wgt>
<wgt id='43'> +3.4771045e+02 </wgt>
<wgt id='44'> +2.3208764e+02 </wgt>
<wgt id='45'> +5.0481800e+02 </wgt>
<wgt id='46'> +4.9751415e+02 </wgt>
<wgt id='47'> +6.1080267e+02 </wgt>
<wgt id='48'> +3.5632052e+02 </wgt>
<wgt id='49'> +3.4278781e+02 </wgt>
<wgt id='50'> +8.6917337e+02 </wgt>
<wgt id='51'> +6.6038843e+02 </wgt>
<wgt id='52'> +4.0205245e+02 </wgt>
<wgt id='53'> +6.5043618e+02 </wgt>
<wgt id='54'> +5.2102361e+02 </wgt>
<wgt id='55'> +6.5257251e+02 </wgt>
<wgt id='56'> +4.5105774e+02 </wgt>
<wgt id='57'> +7.0672081e+02 </wgt>
<wgt id='58'> +4.1464279e+02 </wgt>
<wgt id='59'> +6.5216952e+02 </wgt>
<wgt id='60'> +5.7282016e+02 </wgt>
<wgt id='61'> +4.1318578e+02 </wgt>
<wgt id='62'> +4.2055956e+02 </wgt>
<wgt id='63'> +5.9677028e+02 </wgt>
<wgt id='64'> +4.8447867e+02 </wgt>
<wgt id='65'> +3.7403988e+02 </wgt>
<wgt id='66'> +4.6710344e+02 </wgt>
<wgt id='67'> +4.9893538e+02 </wgt>
<wgt id='68'> +6.5223023e+02 </wgt>
<wgt id='69'> +5.8023506e+02 </wgt>
<wgt id='70'> +7.2926754e+02 </wgt>
<wgt id='71'> +4.8058013e+02 </wgt>
<wgt id='72'> +4.0062348e+02 </wgt>
<wgt id='73'> +3.2061132e+02 </wgt>
<wgt id='74'> +8.1210415e+02 </wgt>
<wgt id='75'> +4.4083991e+02 </wgt>
<wgt id='76'> +3.8536046e+02 </wgt>
<wgt id='77'> +3.7727892e+02 </wgt>
<wgt id='78'> +4.7690512e+02 </wgt>
<wgt id='79'> +4.5328894e+02 </wgt>
<wgt id='80'> +2.2266521e+02 </wgt>
<wgt id='81'> +5.7981486e+02 </wgt>
<wgt id='82'> +4.1208609e+02 </wgt>
<wgt id='83'> +5.4777542e+02 </wgt>
<wgt id='84'> +3.3766401e+02 </wgt>
<wgt id='85'> +4.8727484e+02 </wgt>
<wgt id='86'> +3.8246102e+02 </wgt>
<wgt id='87'> +4.0081305e+02 </wgt>
<wgt id='88'> +5.8251164e+02 </wgt>
<wgt id='89'> +2.5801439e+02 </wgt>
<wgt id='90'> +4.1055390e+02 </wgt>
<wgt id='91'> +3.3996892e+02 </wgt>
<wgt id='92'> +3.6993404e+02 </wgt>
<wgt id='93'> +5.3407742e+02 </wgt>
<wgt id='94'> +2.7684156e+02 </wgt>
<wgt id='95'> +5.8383539e+02 </wgt>
<wgt id='96'> +3.7031008e+02 </wgt>
<wgt id='97'> +4.1402486e+02 </wgt>
<wgt id='98'> +6.1826015e+02 </wgt>
<wgt id='99'> +3.8530074e+02 </wgt>
<wgt id='100'> +3.1560523e+02 </wgt>
<wgt id='101'> +8.2644343e+02 </wgt>
<wgt id='102'> +7.6511289e+02 </wgt>
<wgt id='103'> +4.7062800e+02 </wgt>
<wgt id='104'> +5.0113770e+02 </wgt>
<wgt id='105'> +6.1852587e+02 </wgt>
<wgt id='106'> +3.8880630e+02 </wgt>
<wgt id='107'> +5.0176234e+02 </wgt>
<wgt id='108'> +4.9818123e+02 </wgt>
<wgt id='109'> +6.3274255e+02 </wgt>
<wgt id='110'> +2.4847971e+02 </wgt>
<wgt id='111'> +4.8785615e+02 </wgt>
<wgt id='112'> +5.7826013e+02 </wgt>
<wgt id='113'> +6.2801340e+02 </wgt>
<wgt id='114'> +2.7465266e+02 </wgt>
<wgt id='115'> +3.6927914e+02 </wgt>
<wgt id='116'> +7.0297809e+02 </wgt>
<wgt id='117'> +6.0839537e+02 </wgt>
<wgt id='118'> +5.8387738e+02 </wgt>
<wgt id='119'> +5.4260366e+02 </wgt>
<wgt id='120'> +3.4998527e+02 </wgt>
<wgt id='121'> +5.0503197e+02 </wgt>
<wgt id='122'> +3.3547960e+02 </wgt>
<wgt id='123'> +4.2614168e+02 </wgt>
<wgt id='124'> +6.6651656e+02 </wgt>
<wgt id='125'> +1.0595547e+03 </wgt>
<wgt id='126'> +5.3033848e+02 </wgt>
<wgt id='127'> +5.2344226e+02 </wgt>
<wgt id='128'> +5.3586879e+02 </wgt>
<wgt id='129'> +5.0916543e+02 </wgt>
<wgt id='130'> +4.0573214e+02 </wgt>
<wgt id='131'> +2.9877481e+02 </wgt>
<wgt id='132'> +5.5279514e+02 </wgt>
<wgt id='133'> +4.3652397e+02 </wgt>
<wgt id='134'> +7.3209338e+02 </wgt>
<wgt id='135'> +4.4143215e+02 </wgt>
<wgt id='136'> +7.7160135e+02 </wgt>
<wgt id='137'> +4.9073387e+02 </wgt>
<wgt id='138'> +6.0430029e+02 </wgt>
<wgt id='139'> +5.2805508e+02 </wgt>
<wgt id='140'> +4.7216077e+02 </wgt>
<wgt id='141'> +7.1423478e+02 </wgt>
<wgt id='142'> +2.3981174e+02 </wgt>
<wgt id='143'> +6.5624956e+02 </wgt>
<wgt id='144'> +4.2275217e+02 </wgt>
<wgt id='145'> +3.8138056e+02 </wgt>
</rwgt>
</event>
<event>
 4      1 +5.0481800e+02 1.86768400e+02 7.54677100e-03 1.16140900e-01
       21 -1    0    0  503  502 +0.0000000000e+00 +0.0000000000e+00 +1.0189766030e+03 1.0189766030e+03 0.0000000000e+00 0.0000e+00 1.0000e+00
       21 -1    0    0  501  503 -0.0000000000e+00 -0.0000000000e+00 -5.4541553430e+02 5.4541553430e+02 0.0000000000e+00 0.0000e+00 1.0000e+00
        6  1    1    2  501    0 +9.6187580459e+00 -6.9720354514e+01 -5.2047063861e+02 5.5296666626e+02 1.7300000000e+02 0.0000e+00 1.0000e+00
       -6  1    1    2    0  502 -9.6187580459e+00 +6.9720354514e+01 +9.9403170733e+02 1.0114254711e+03 1.7300000000e+02 0.0000e+00 1.0000e+00
<mgrwt>
<rscale>  2 0.18676844E+03</rscale>
<asrwt>0</asrwt>
<pdfrwt beam="1">  1       21 0.15676563E+00 0.18676844E+03</pdfrwt>
<pdfrwt beam="2">  1       21 0.83910083E-01 0.18676844E+03</pdfrwt>
<totfact> 0.33054342E+02</totfact>
</mgrwt>
<rwgt>
<wgt id='1'> +7.2506995e+02 </wgt>
<wgt id='2'> +8.3210115e+02 </wgt>
<wgt id='3'> +5.0481801e+02 </wgt>
<wgt id='4'> +7.2506996e+02 </wgt>
<wgt id='5'> +2.6419092e+02 </wgt>
<wgt id='6'> +6.2037422e+02 </wgt>
<wgt id='7'> +7.1140713e+02 </wgt>
<wgt id='8'> +4.2908369e+02 </wgt>
<wgt id='9'> +6.2037423e+02 </wgt>
<wgt id='10'> +2.2838590e+02 </wgt>
<wgt id='11'> +5.2730381e+02 </wgt>
<wgt id='12'> +6.0526832e+02 </wgt>
<wgt id='13'> +3.6787252e+02 </wgt>
<wgt id='14'> +5.2730382e+02 </wgt>
<wgt id='15'> +1.9896072e+02 </wgt>
<wgt id='16'> +5.9001221e+02 </wgt>
<wgt id='17'> +6.7036856e+02 </wgt>
<wgt id='18'> +4.2462971e+02 </wgt>
<wgt id='19'> +5.9001221e+02 </wgt>
<wgt id='20'> +2.2800174e+02 </wgt>
<wgt id='21'> +5.7313342e+02 </wgt>
<wgt id='22'> +3.6092548e+02 </wgt>
<wgt id='23'> +5.0481801e+02 </wgt>
<wgt id='24'> +1.9710134e+02 </wgt>
<wgt id='25'> +4.2908369e+02 </wgt>
<wgt id='26'> +4.8762443e+02 </wgt>
<wgt id='27'> +3.0943746e+02 </wgt>
<wgt id='28'> +4.2908369e+02 </wgt>
<wgt id='29'> +1.7170685e+02 </wgt>
<wgt id='30'> +4.9629115e+02 </wgt>
<wgt id='31'> +5.5832980e+02 </wgt>
<wgt id='32'> +3.6220534e+02 </wgt>
<wgt id='33'> +4.9629116e+02 </wgt>
<wgt id='34'> +1.9876872e+02 </wgt>
<wgt id='35'> +4.2462970e+02 </wgt>
<wgt id='36'> +4.7734557e+02 </wgt>
<wgt id='37'> +3.0786620e+02 </wgt>
<wgt id='38'> +4.2462971e+02 </wgt>
<wgt id='39'> +1.7183018e+02 </wgt>
<wgt id='40'> +3.6092548e+02 </wgt>
<wgt id='41'> +4.0612771e+02 </wgt>
<wgt id='42'> +2.6394738e+02 </wgt>
<wgt id='43'> +3.6092548e+02 </wgt>
<wgt id='44'> +1.4969163e+02 </wgt>
<wgt id='45'> +5.0481800e+02 </wgt>
<wgt id='46'> +5.4179594e+02 </wgt>
<wgt id='47'> +5.3265221e+02 </wgt>
<wgt id='48'> +5.1876488e+02 </wgt>
<wgt id='49'> +4.7466035e+02 </wgt>
<wgt id='50'> +6.7706665e+02 </wgt>
<wgt id='51'> +4.7955892e+02 </wgt>
<wgt id='52'> +4.9369176e+02 </wgt>
<wgt id='53'> +4.8433667e+02 </wgt>
<wgt id='54'> +5.3066590e+02 </wgt>
<wgt id='55'> +5.2136618e+02 </wgt>
<wgt id='56'> +4.4197555e+02 </wgt>
<wgt id='57'> +5.2897401e+02 </wgt>
<wgt id='58'> +4.5156472e+02 </wgt>
<wgt id='59'> +5.7025777e+02 </wgt>
<wgt id='60'> +5.2551983e+02 </wgt>
<wgt id='61'> +3.9914305e+02 </wgt>
<wgt id='62'> +4.8071948e+02 </wgt>
<wgt id='63'> +5.2084293e+02 </wgt>
<wgt id='64'> +4.8305741e+02 </wgt>
<wgt id='65'> +5.1281550e+02 </wgt>
<wgt id='66'> +5.0601234e+02 </wgt>
<wgt id='67'> +5.0660771e+02 </wgt>
<wgt id='68'> +6.1993159e+02 </wgt>
<wgt id='69'> +5.5430454e+02 </wgt>
<wgt id='70'> +5.1254426e+02 </wgt>
<wgt id='71'> +4.8790437e+02 </wgt>
<wgt id='72'> +4.3968663e+02 </wgt>
<wgt id='73'> +4.5600282e+02 </wgt>
<wgt id='74'> +5.8634600e+02 </wgt>
<wgt id='75'> +5.3797472e+02 </wgt>
<wgt id='76'> +5.0688527e+02 </wgt>
<wgt id='77'> +4.9860522e+02 </wgt>
<wgt id='78'> +4.3022901e+02 </wgt>
<wgt id='79'> +5.3329758e+02 </wgt>
<wgt id='80'> +4.5655697e+02 </wgt>
<wgt id='81'> +4.9804833e+02 </wgt>
<wgt id='82'> +4.7295872e+02 </wgt>
<wgt id='83'> +5.1373584e+02 </wgt>
<wgt id='84'> +5.3069542e+02 </wgt>
<wgt id='85'> +4.8090779e+02 </wgt>
<wgt id='86'> +5.3238016e+02 </wgt>
<wgt id='87'> +5.1192649e+02 </wgt>
<wgt id='88'> +5.0248276e+02 </wgt>
<wgt id='89'> +4.7824667e+02 </wgt>
<wgt id='90'> +5.0204881e+02 </wgt>
<wgt id='91'> +4.6819878e+02 </wgt>
<wgt id='92'> +4.2607658e+02 </wgt>
<wgt id='93'> +5.1747724e+02 </wgt>
<wgt id='94'> +4.5697949e+02 </wgt>
<wgt id='95'> +5.1374073e+02 </wgt>
<wgt id='96'> +5.6230037e+02 </wgt>
<wgt id='97'> +4.6293927e+02 </wgt>
<wgt id='98'> +5.2378936e+02 </wgt>
<wgt id='99'> +4.3473971e+02 </wgt>
<wgt id='100'> +3.8562587e+02 </wgt>
<wgt id='101'> +6.3485466e+02 </wgt>
<wgt id='102'> +5.9413448e+02 </wgt>
<wgt id='103'> +5.3172502e+02 </wgt>
<wgt id='104'> +5.3949574e+02 </wgt>
<wgt id='105'> +5.0796584e+02 </wgt>
<wgt id='106'> +4.3794630e+02 </wgt>
<wgt id='107'> +4.4447986e+02 </wgt>
<wgt id='108'> +4.2034510e+02 </wgt>
<wgt id='109'> +4.6693406e+02 </wgt>
<wgt id='110'> +4.7308364e+02 </wgt>
<wgt id='111'> +4.8006958e+02 </wgt>
<wgt id='112'> +4.8271812e+02 </wgt>
<wgt id='113'> +4.7765293e+02 </wgt>
<wgt id='114'> +4.7980631e+02 </wgt>
<wgt id='115'> +4.3332273e+02 </wgt>
<wgt id='116'> +5.7877395e+02 </wgt>
<wgt id='117'> +4.8160712e+02 </wgt>
<wgt id='118'> +5.5959988e+02 </wgt>
<wgt id='119'> +5.1503677e+02 </wgt>
<wgt id='120'> +4.8337209e+02 </wgt>
<wgt id='121'> +4.9008317e+02 </wgt>
<wgt id='122'> +4.9349914e+02 </wgt>
<wgt id='123'> +5.0316468e+02 </wgt>
<wgt id='124'> +6.1661939e+02 </wgt>
<wgt id='125'> +6.4976672e+02 </wgt>
<wgt id='126'> +5.1867042e+02 </wgt>
<wgt id='127'> +5.1077058e+02 </wgt>
<wgt id='128'> +4.4754807e+02 </wgt>
<wgt id='129'> +5.5694914e+02 </wgt>
<wgt id='130'> +4.9187382e+02 </wgt>
<wgt id='131'> +4.9047495e+02 </wgt>
<wgt id='132'> +5.7861439e+02 </wgt>
<wgt id='133'> +5.6600125e+02 </wgt>
<wgt id='134'> +5.1741301e+02 </wgt>
<wgt id='135'> +4.9499834e+02 </wgt>
<wgt id='136'> +5.9584204e+02 </wgt>
<wgt id='137'> +5.1274136e+02 </wgt>
<wgt id='138'> +5.2309183e+02 </wgt>
<wgt id='139'> +5.3423559e+02 </wgt>
<wgt id='140'> +4.9091818e+02 </wgt>
<wgt id='141'> +5.5408835e+02 </wgt>
<wgt id='142'> +3.8070550e+02 </wgt>
<wgt id='143'> +5.3244722e+02 </wgt>
<wgt id='144'> +4.5647917e+02 </wgt>
<wgt id='145'> +4.7947117e+02 </wgt>
</rwgt>
</event>
<event>
 4      1 +5.0481800e+02 2.91284900e+02 7.54677100e-03 1.08968000e-01
       21 -1    0    0  501  502 +0.0000000000e+00 +0.0000000000e+00 +4.6128151113e+01 4.6128151113e+01 0.0000000000e+00 0.0000e+00 1.0000e+00
       21 -1    0    0  502  503 -0.0000000000e+00 -0.0000000000e+00 -1.8470548626e+03 1.8470548626e+03 0.0000000000e+00 0.0000e+00 -1.0000e+00
        6  1    1    2  501    0 +5.2276978735e+00 +2.3428739555e+02 -9.6150600810e+02 1.0046595026e+03 1.7300000000e+02 0.0000e+00 1.0000e+00
       -6  1    1    2    0  503 -5.2276978735e+00 -2.3428739555e+02 -8.3942070339e+02 8.8852351112e+02 1.7300000000e+02 0.0000e+00 -1.0000e+00
<mgrwt>
<rscale>  2 0.29128493E+03</rscale>
<asrwt>0</asrwt>
<pdfrwt beam="1">  1       21 0.70966393E-02 0.29128493E+03</pdfrwt>
<pdfrwt beam="2">  1       21 0.28416226E+00 0.29128493E+03</pdfrwt>
<totfact> 0.56945911E+03</totfact>
</mgrwt>
<rwgt>
<wgt id='1'> +7.0104172e+02 </wgt>
<wgt id='2'> +5.5372682e+02 </wgt>
<wgt id='3'> +5.0481800e+02 </wgt>
<wgt id='4'> +7.0104172e+02 </wgt>
<wgt id='5'> +5.0433763e+02 </wgt>
<wgt id='6'> +6.0609578e+02 </wgt>
<wgt id='7'> +4.7922713e+02 </wgt>
<wgt id='8'> +4.3788760e+02 </wgt>
<wgt id='9'> +6.0609578e+02 </wgt>
<wgt id='10'> +4.3748117e+02 </wgt>
<wgt id='11'> +5.2573765e+02 </wgt>
<wgt id='12'> +4.1798841e+02 </wgt>
<wgt id='13'> +3.8277779e+02 </wgt>
<wgt id='14'> +5.2573764e+02 </wgt>
<wgt id='15'> +3.8243136e+02 </wgt>
<wgt id='16'> +5.8389860e+02 </wgt>
<wgt id='17'> +4.6826460e+02 </wgt>
<wgt id='18'> +4.2860105e+02 </wgt>
<wgt id='19'> +5.8389860e+02 </wgt>
<wgt id='20'> +4.2821043e+02 </wgt>
<wgt id='21'> +4.0526319e+02 </wgt>
<wgt id='22'> +3.7177574e+02 </wgt>
<wgt id='23'> +5.0481800e+02 </wgt>
<wgt id='24'> +3.7144562e+02 </wgt>
<wgt id='25'> +4.3788760e+02 </wgt>
<wgt id='26'> +3.5347606e+02 </wgt>
<wgt id='27'> +3.2498636e+02 </wgt>
<wgt id='28'> +4.3788760e+02 </wgt>
<wgt id='29'> +3.2470529e+02 </wgt>
<wgt id='30'> +4.9574214e+02 </wgt>
<wgt id='31'> +4.0115979e+02 </wgt>
<wgt id='32'> +3.6842490e+02 </wgt>
<wgt id='33'> +4.9574214e+02 </wgt>
<wgt id='34'> +3.6810186e+02 </wgt>
<wgt id='35'> +4.2860105e+02 </wgt>
<wgt id='36'> +3.4718682e+02 </wgt>
<wgt id='37'> +3.1957794e+02 </wgt>
<wgt id='38'> +4.2860105e+02 </wgt>
<wgt id='39'> +3.1930520e+02 </wgt>
<wgt id='40'> +3.7177574e+02 </wgt>
<wgt id='41'> +3.0282106e+02 </wgt>
<wgt id='42'> +2.7935785e+02 </wgt>
<wgt id='43'> +3.7177574e+02 </wgt>
<wgt id='44'> +2.7912589e+02 </wgt>
<wgt id='45'> +5.0481800e+02 </wgt>
<wgt id='46'> +5.1166743e+02 </wgt>
<wgt id='47'> +5.7857506e+02 </wgt>
<wgt id='48'> +5.0531894e+02 </wgt>
<wgt id='49'> +4.4420683e+02 </wgt>
<wgt id='50'> +6.0154802e+02 </wgt>
<wgt id='51'> +4.7565549e+02 </wgt>
<wgt id='52'> +4.2067747e+02 </wgt>
<wgt id='53'> +5.4930571e+02 </wgt>
<wgt id='54'> +5.3848382e+02 </wgt>
<wgt id='55'> +6.2029765e+02 </wgt>
<wgt id='56'> +4.9182880e+02 </wgt>
<wgt id='57'> +5.4727328e+02 </wgt>
<wgt id='58'> +4.2734190e+02 </wgt>
<wgt id='59'> +5.4533711e+02 </wgt>
<wgt id='60'> +4.8394334e+02 </wgt>
<wgt id='61'> +3.9439013e+02 </wgt>
<wgt id='62'> +4.3611336e+02 </wgt>
<wgt id='63'> +5.3881269e+02 </wgt>
<wgt id='64'> +5.0673044e+02 </wgt>
<wgt id='65'> +4.0031446e+02 </wgt>
<wgt id='66'> +5.2348205e+02 </wgt>
<wgt id='67'> +5.0101117e+02 </wgt>
<wgt id='68'> +7.1679258e+02 </wgt>
<wgt id='69'> +5.9959412e+02 </wgt>
<wgt id='70'> +6.3901093e+02 </wgt>
<wgt id='71'> +4.3569038e+02 </wgt>
<wgt id='72'> +4.1869413e+02 </wgt>
<wgt id='73'> +4.3868959e+02 </wgt>
<wgt id='74'> +6.5233162e+02 </wgt>
<wgt id='75'> +6.2273134e+02 </wgt>
<wgt id='76'> +5.1616984e+02 </wgt>
<wgt id='77'> +4.3985190e+02 </wgt>
<wgt id='78'> +4.1001884e+02 </wgt>
<wgt id='79'> +5.7611112e+02 </wgt>
<wgt id='80'> +3.9805940e+02 </wgt>
<wgt id='81'> +5.5596460e+02 </wgt>
<wgt id='82'> +5.0193748e+02 </wgt>
<wgt id='83'> +5.0518714e+02 </wgt>
<wgt id='84'> +4.5209257e+02 </wgt>
<wgt id='85'> +4.2170828e+02 </wgt>
<wgt id='86'> +5.6019628e+02 </wgt>
<wgt id='87'> +4.7624577e+02 </wgt>
<wgt id='88'> +5.2658316e+02 </wgt>
<wgt id='89'> +3.3622672e+02 </wgt>
<wgt id='90'> +4.1612218e+02 </wgt>
<wgt id='91'> +3.8470296e+02 </wgt>
<wgt id='92'> +4.7533535e+02 </wgt>
<wgt id='93'> +5.2703092e+02 </wgt>
<wgt id='94'> +4.4244159e+02 </wgt>
<wgt id='95'> +5.2413927e+02 </wgt>
<wgt id='96'> +5.1667693e+02 </wgt>
<wgt id='97'> +4.2679787e+02 </wgt>
<wgt id='98'> +6.0887027e+02 </wgt>
<wgt id='99'> +3.8240448e+02 </wgt>
<wgt id='100'> +3.2983556e+02 </wgt>
<wgt id='101'> +6.0882822e+02 </wgt>
<wgt id='102'> +5.9478073e+02 </wgt>
<wgt id='103'> +4.3187176e+02 </wgt>
<wgt id='104'> +5.7008890e+02 </wgt>
<wgt id='105'> +5.1495716e+02 </wgt>
<wgt id='106'> +5.1452608e+02 </wgt>
<wgt id='107'> +5.2058902e+02 </wgt>
<wgt id='108'> +4.7074230e+02 </wgt>
<wgt id='109'> +5.0584502e+02 </wgt>
<wgt id='110'> +4.1197998e+02 </wgt>
<wgt id='111'> +4.7551833e+02 </wgt>
<wgt id='112'> +5.2770276e+02 </wgt>
<wgt id='113'> +6.0700337e+02 </wgt>
<wgt id='114'> +4.9478964e+02 </wgt>
<wgt id='115'> +4.8084431e+02 </wgt>
<wgt id='116'> +5.8008149e+02 </wgt>
<wgt id='117'> +5.1477768e+02 </wgt>
<wgt id='118'> +5.0153647e+02 </wgt>
<wgt id='119'> +5.6012549e+02 </wgt>
<wgt id='120'> +4.9664054e+02 </wgt>
<wgt id='121'> +4.6350486e+02 </wgt>
<wgt id='122'> +4.7663667e+02 </wgt>
<wgt id='123'> +4.5088904e+02 </wgt>
<wgt id='124'> +5.6539867e+02 </wgt>
<wgt id='125'> +7.1895829e+02 </wgt>
<wgt id='126'> +4.7862851e+02 </wgt>
<wgt id='127'> +4.5495522e+02 </wgt>
<wgt id='128'> +5.0755272e+02 </wgt>
<wgt id='129'> +4.7813217e+02 </wgt>
<wgt id='130'> +5.0509086e+02 </wgt>
<wgt id='131'> +4.2849652e+02 </wgt>
<wgt id='132'> +5.3617438e+02 </wgt>
<wgt id='133'> +5.6316852e+02 </wgt>
<wgt id='134'> +5.6339256e+02 </wgt>
<wgt id='135'> +4.6951032e+02 </wgt>
<wgt id='136'> +6.2073133e+02 </wgt>
<wgt id='137'> +5.9735532e+02 </wgt>
<wgt id='138'> +5.5865833e+02 </wgt>
<wgt id='139'> +5.2559556e+02 </wgt>
<wgt id='140'> +4.8480389e+02 </wgt>
<wgt id='141'> +6.5769340e+02 </wgt>
<wgt id='142'> +2.4885632e+02 </wgt>
<wgt id='143'> +5.0971870e+02 </wgt>
<wgt id='144'> +4.3208574e+02 </wgt>
<wgt id='145'> +4.5322334e+02 </wgt>
</rwgt>
</event>
<event>
 4      1 +5.0481800e+02 1.92785300e+02 7.54677100e-03 1.15597300e-01
       21 -1    0    0  503  502 +0.0000000000e+00 +0.0000000000e+00 +5.8162652274e+01 5.8162652274e+01 0.0000000000e+00 0.0000e+00 1.0000e+00
       21 -1    0    0  501  503 -0.0000000000e+00 -0.0000000000e+00 -6.5771805127e+02 6.5771805127e+02 0.0000000000e+00 0.0000e+00 1.0000e+00
        6  1    1    2  501    0 -7.5011656079e+01 -4.0130060607e+01 -2.3940033985e+02 3.0737386524e+02 1.7300000000e+02 0.0000e+00 -1.0000e+00
       -6  1    1    2    0  502 +7.5011656079e+01 +4.0130060607e+01 -3.6015505915e+02 4.0850683831e+02 1.7300000000e+02 0.0000e+00 -1.0000e+00
<mgrwt>
<rscale>  2 0.19278530E+03</rscale>
<asrwt>0</asrwt>
<pdfrwt beam="1">  1       21 0.89481009E-02 0.19278530E+03</pdfrwt>
<pdfrwt beam="2">  1       21 0.10118739E+00 0.19278530E+03</pdfrwt>
<totfact> 0.78766833E+04</totfact>
</mgrwt>
<rwgt>
<wgt id='1'> +6.4946504e+02 </wgt>
<wgt id='2'> +6.4444057e+02 </wgt>
<wgt id='3'> +5.0481800e+02 </wgt>
<wgt id='4'> +6.4946504e+02 </wgt>
<wgt id='5'> +5.0225553e+02 </wgt>
<wgt id='6'> +6.1945136e+02 </wgt>
<wgt id='7'> +6.1429724e+02 </wgt>
<wgt id='8'> +4.7282021e+02 </wgt>
<wgt id='9'> +6.1945136e+02 </wgt>
<wgt id='10'> +4.7037087e+02 </wgt>
<wgt id='11'> +5.8018755e+02 </wgt>
<wgt id='12'> +5.7527798e+02 </wgt>
<wgt id='13'> +4.4254158e+02 </wgt>
<wgt id='14'> +5.8018755e+02 </wgt>
<wgt id='15'> +4.4024795e+02 </wgt>
<wgt id='16'> +5.2927746e+02 </wgt>
<wgt id='17'> +5.2572791e+02 </wgt>
<wgt id='18'> +4.2501542e+02 </wgt>
<wgt id='19'> +5.2927746e+02 </wgt>
<wgt id='20'> +4.2302254e+02 </wgt>
<wgt id='21'> +5.0113729e+02 </wgt>
<wgt id='22'> +3.9807589e+02 </wgt>
<wgt id='23'> +5.0481800e+02 </wgt>
<wgt id='24'> +3.9616782e+02 </wgt>
<wgt id='25'> +4.7282020e+02 </wgt>
<wgt id='26'> +4.6930579e+02 </wgt>
<wgt id='27'> +3.7258377e+02 </wgt>
<wgt id='28'> +4.7282021e+02 </wgt>
<wgt id='29'> +3.7079692e+02 </wgt>
<wgt id='30'> +4.4560828e+02 </wgt>
<wgt id='31'> +4.4286377e+02 </wgt>
<wgt id='32'> +3.6274300e+02 </wgt>
<wgt id='33'> +4.4560828e+02 </wgt>
<wgt id='34'> +3.6113644e+02 </wgt>
<wgt id='35'> +4.2501541e+02 </wgt>
<wgt id='36'> +4.2214907e+02 </wgt>
<wgt id='37'> +3.3975060e+02 </wgt>
<wgt id='38'> +4.2501542e+02 </wgt>
<wgt id='39'> +3.3821043e+02 </wgt>
<wgt id='40'> +3.9807589e+02 </wgt>
<wgt id='41'> +3.9533478e+02 </wgt>
<wgt id='42'> +3.1799353e+02 </wgt>
<wgt id='43'> +3.9807589e+02 </wgt>
<wgt id='44'> +3.1655117e+02 </wgt>
<wgt id='45'> +5.0481800e+02 </wgt>
<wgt id='46'> +5.1383089e+02 </wgt>
<wgt id='47'> +5.1752464e+02 </wgt>
<wgt id='48'> +5.0643127e+02 </wgt>
<wgt id='49'> +4.9601698e+02 </wgt>
<wgt id='50'> +5.8952431e+02 </wgt>
<wgt id='51'> +4.9199971e+02 </wgt>
<wgt id='52'> +5.0303309e+02 </wgt>
<wgt id='53'> +4.9901560e+02 </wgt>
<wgt id='54'> +5.1366004e+02 </wgt>
<wgt id='55'> +4.8442199e+02 </wgt>
<wgt id='56'> +4.6590159e+02 </wgt>
<wgt id='57'> +5.0874747e+02 </wgt>
<wgt id='58'> +4.9554989e+02 </wgt>
<wgt id='59'> +5.2343303e+02 </wgt>
<wgt id='60'> +5.0470738e+02 </wgt>
<wgt id='61'> +4.4937647e+02 </wgt>
<wgt id='62'> +4.9393624e+02 </wgt>
<wgt id='63'> +5.0829314e+02 </wgt>
<wgt id='64'> +4.9781806e+02 </wgt>
<wgt id='65'> +5.5060329e+02 </wgt>
<wgt id='66'> +4.9665029e+02 </wgt>
<wgt id='67'> +5.0752026e+02 </wgt>
<wgt id='68'> +5.5424092e+02 </wgt>
<wgt id='69'> +5.0213525e+02 </wgt>
<wgt id='70'> +5.0098024e+02 </wgt>
<wgt id='71'> +5.0768232e+02 </wgt>
<wgt id='72'> +4.8978522e+02 </wgt>
<wgt id='73'> +4.8932190e+02 </wgt>
<wgt id='74'> +5.3256243e+02 </wgt>
<wgt id='75'> +5.1591255e+02 </wgt>
<wgt id='76'> +5.0051962e+02 </wgt>
<wgt id='77'> +4.9441498e+02 </wgt>
<wgt id='78'> +4.8275750e+02 </wgt>
<wgt id='79'> +5.0075421e+02 </wgt>
<wgt id='80'> +4.9045691e+02 </wgt>
<wgt id='81'> +4.9781547e+02 </wgt>
<wgt id='82'> +4.9755233e+02 </wgt>
<wgt id='83'> +5.0760678e+02 </wgt>
<wgt id='84'> +5.3530335e+02 </wgt>
<wgt id='85'> +5.1038536e+02 </wgt>
<wgt id='86'> +5.0676402e+02 </wgt>
<wgt id='87'> +5.0732560e+02 </wgt>
<wgt id='88'> +5.0451003e+02 </wgt>
<wgt id='89'> +5.0694519e+02 </wgt>
<wgt id='90'> +5.1228409e+02 </wgt>
<wgt id='91'> +5.1276147e+02 </wgt>
<wgt id='92'> +4.6780364e+02 </wgt>
<wgt id='93'> +5.0217910e+02 </wgt>
<wgt id='94'> +4.9135768e+02 </wgt>
<wgt id='95'> +5.0198773e+02 </wgt>
<wgt id='96'> +5.3474124e+02 </wgt>
<wgt id='97'> +4.9805586e+02 </wgt>
<wgt id='98'> +4.9622044e+02 </wgt>
<wgt id='99'> +4.7835335e+02 </wgt>
<wgt id='100'> +4.7131317e+02 </wgt>
<wgt id='101'> +5.5310153e+02 </wgt>
<wgt id='102'> +5.1804207e+02 </wgt>
<wgt id='103'> +5.3709434e+02 </wgt>
<wgt id='104'> +5.0874836e+02 </wgt>
<wgt id='105'> +5.2172830e+02 </wgt>
<wgt id='106'> +4.6743153e+02 </wgt>
<wgt id='107'> +4.8553220e+02 </wgt>
<wgt id='108'> +4.5267025e+02 </wgt>
<wgt id='109'> +4.8052101e+02 </wgt>
<wgt id='110'> +5.0016292e+02 </wgt>
<wgt id='111'> +4.9269824e+02 </wgt>
<wgt id='112'> +4.8358182e+02 </wgt>
<wgt id='113'> +4.7452439e+02 </wgt>
<wgt id='114'> +4.9902500e+02 </wgt>
<wgt id='115'> +4.7966384e+02 </wgt>
<wgt id='116'> +5.1990425e+02 </wgt>
<wgt id='117'> +4.9904004e+02 </wgt>
<wgt id='118'> +5.2543711e+02 </wgt>
<wgt id='119'> +4.9803250e+02 </wgt>
<wgt id='120'> +4.9422589e+02 </wgt>
<wgt id='121'> +4.9828681e+02 </wgt>
<wgt id='122'> +4.9965268e+02 </wgt>
<wgt id='123'> +5.0509760e+02 </wgt>
<wgt id='124'> +5.5333731e+02 </wgt>
<wgt id='125'> +5.6109338e+02 </wgt>
<wgt id='126'> +5.1668811e+02 </wgt>
<wgt id='127'> +5.1452041e+02 </wgt>
<wgt id='128'> +4.6248266e+02 </wgt>
<wgt id='129'> +5.5893047e+02 </wgt>
<wgt id='130'> +4.9798609e+02 </wgt>
<wgt id='131'> +5.2188677e+02 </wgt>
<wgt id='132'> +5.2980846e+02 </wgt>
<wgt id='133'> +5.1802080e+02 </wgt>
<wgt id='134'> +4.9408785e+02 </wgt>
<wgt id='135'> +5.0993441e+02 </wgt>
<wgt id='136'> +5.2412730e+02 </wgt>
<wgt id='137'> +4.8521176e+02 </wgt>
<wgt id='138'> +4.7412801e+02 </wgt>
<wgt id='139'> +5.1896233e+02 </wgt>
<wgt id='140'> +5.1799674e+02 </wgt>
<wgt id='141'> +5.1442883e+02 </wgt>
<wgt id='142'> +4.7509033e+02 </wgt>
<wgt id='143'> +5.1486246e+02 </wgt>
<wgt id='144'> +4.9520191e+02 </wgt>
<wgt id='145'> +4.9872958e+02 </wgt>
</rwgt>
</event>
<event>
 4      1 +5.0481800e+02 1.75736900e+02 7.54677100e-03 1.17199400e-01
       21 -1    0    0  501  502 +0.0000000000e+00 +0.0000000000e+00 +1.9463289488e+02 1.9463289488e+02 0.0000000000e+00 0.0000e+00 -1.0000e+00
       21 -1    0    0  502  503 -0.0000000000e+00 -0.0000000000e+00 -2.0086691591e+02 2.0086691591e+02 0.0000000000e+00 0.0000e+00 -1.0000e+00
        6  1    1    2  501    0 -4.2289799023e-01 -3.0891518999e+01 +8.7513477197e+01 1.9632135258e+02 1.7300000000e+02 0.0000e+00 -1.0000e+00
       -6  1    1    2    0  503 +4.2289799023e-01 +3.0891518999e+01 -9.3747498230e+01 1.9917845821e+02 1.7300000000e+02 0.0000e+00 -1.0000e+00
<mgrwt>
<rscale>  2 0.17573692E+03</rscale>
<asrwt>0</asrwt>
<pdfrwt beam="1">  1       21 0.29943522E-01 0.17573692E+03</pdfrwt>
<pdfrwt beam="2">  1       21 0.30902603E-01 0.17573692E+03</pdfrwt>
<totfact> 0.10823470E+05</totfact>
</mgrwt>
<rwgt>
<wgt id='1'> +6.4435145e+02 </wgt>
<wgt id='2'> +7.2455004e+02 </wgt>
<wgt id='3'> +5.0481800e+02 </wgt>
<wgt id='4'> +6.4435145e+02 </wgt>
<wgt id='5'> +4.8499816e+02 </wgt>
<wgt id='6'> +6.2215042e+02 </wgt>
<wgt id='7'> +7.0290643e+02 </wgt>
<wgt id='8'> +4.7775358e+02 </wgt>
<wgt id='9'> +6.2215042e+02 </wgt>
<wgt id='10'> +4.5841499e+02 </wgt>
<wgt id='11'> +5.8879555e+02 </wgt>
<wgt id='12'> +6.7087903e+02 </wgt>
<wgt id='13'> +4.5114357e+02 </wgt>
<wgt id='14'> +5.8879555e+02 </wgt>
<wgt id='15'> +4.3283089e+02 </wgt>
<wgt id='16'> +5.2283210e+02 </wgt>
<wgt id='17'> +5.8119623e+02 </wgt>
<wgt id='18'> +4.2381831e+02 </wgt>
<wgt id='19'> +5.2283210e+02 </wgt>
<wgt id='20'> +4.0860001e+02 </wgt>
<wgt id='21'> +5.6383486e+02 </wgt>
<wgt id='22'> +4.0109647e+02 </wgt>
<wgt id='23'> +5.0481800e+02 </wgt>
<wgt id='24'> +3.8620429e+02 </wgt>
<wgt id='25'> +4.7775358e+02 </wgt>
<wgt id='26'> +5.3814415e+02 </wgt>
<wgt id='27'> +3.7875611e+02 </wgt>
<wgt id='28'> +4.7775358e+02 </wgt>
<wgt id='29'> +3.6465026e+02 </wgt>
<wgt id='30'> +4.3894199e+02 </wgt>
<wgt id='31'> +4.8082533e+02 </wgt>
<wgt id='32'> +3.6111093e+02 </wgt>
<wgt id='33'> +4.3894199e+02 </wgt>
<wgt id='34'> +3.4889239e+02 </wgt>
<wgt id='35'> +4.2381831e+02 </wgt>
<wgt id='36'> +4.6646222e+02 </wgt>
<wgt id='37'> +3.4175097e+02 </wgt>
<wgt id='38'> +4.2381831e+02 </wgt>
<wgt id='39'> +3.2976930e+02 </wgt>
<wgt id='40'> +4.0109647e+02 </wgt>
<wgt id='41'> +4.4520822e+02 </wgt>
<wgt id='42'> +3.2271605e+02 </wgt>
<wgt id='43'> +4.0109647e+02 </wgt>
<wgt id='44'> +3.1136490e+02 </wgt>
<wgt id='45'> +5.0481800e+02 </wgt>
<wgt id='46'> +5.0061266e+02 </wgt>
<wgt id='47'> +5.2095053e+02 </wgt>
<wgt id='48'> +5.0385710e+02 </wgt>
<wgt id='49'> +5.0440525e+02 </wgt>
<wgt id='50'> +5.7898835e+02 </wgt>
<wgt id='51'> +4.9510101e+02 </wgt>
<wgt id='52'> +5.0071334e+02 </wgt>
<wgt id='53'> +5.1474921e+02 </wgt>
<wgt id='54'> +5.0762417e+02 </wgt>
<wgt id='55'> +4.5014431e+02 </wgt>
<wgt id='56'> +4.7418840e+02 </wgt>
<wgt id='57'> +4.9043050e+02 </wgt>
<wgt id='58'> +5.1223669e+02 </wgt>
<wgt id='59'> +4.9171614e+02 </wgt>
<wgt id='60'> +4.7896147e+02 </wgt>
<wgt id='61'> +5.0190762e+02 </wgt>
<wgt id='62'> +4.9757673e+02 </wgt>
<wgt id='63'> +5.0522554e+02 </wgt>
<wgt id='64'> +5.0417278e+02 </wgt>
<wgt id='65'> +5.9876863e+02 </wgt>
<wgt id='66'> +4.9182225e+02 </wgt>
<wgt id='67'> +5.0946068e+02 </wgt>
<wgt id='68'> +5.3547241e+02 </wgt>
<wgt id='69'> +4.8743362e+02 </wgt>
<wgt id='70'> +4.9703788e+02 </wgt>
<wgt id='71'> +5.1471794e+02 </wgt>
<wgt id='72'> +4.9746459e+02 </wgt>
<wgt id='73'> +5.0032450e+02 </wgt>
<wgt id='74'> +5.1508878e+02 </wgt>
<wgt id='75'> +5.1509461e+02 </wgt>
<wgt id='76'> +4.9042721e+02 </wgt>
<wgt id='77'> +4.8322965e+02 </wgt>
<wgt id='78'> +5.1078212e+02 </wgt>
<wgt id='79'> +4.8083553e+02 </wgt>
<wgt id='80'> +5.0239841e+02 </wgt>
<wgt id='81'> +4.9697001e+02 </wgt>
<wgt id='82'> +5.2201644e+02 </wgt>
<wgt id='83'> +5.1378420e+02 </wgt>
<wgt id='84'> +5.5348509e+02 </wgt>
<wgt id='85'> +5.3247035e+02 </wgt>
<wgt id='86'> +4.9894257e+02 </wgt>
<wgt id='87'> +5.0319516e+02 </wgt>
<wgt id='88'> +5.1295063e+02 </wgt>
<wgt id='89'> +5.1512645e+02 </wgt>
<wgt id='90'> +5.0857923e+02 </wgt>
<wgt id='91'> +5.3953150e+02 </wgt>
<wgt id='92'> +4.7098537e+02 </wgt>
<wgt id='93'> +4.9360943e+02 </wgt>
<wgt id='94'> +5.0536324e+02 </wgt>
<wgt id='95'> +4.8497913e+02 </wgt>
<wgt id='96'> +5.4110223e+02 </wgt>
<wgt id='97'> +5.1570908e+02 </wgt>
<wgt id='98'> +4.7989397e+02 </wgt>
<wgt id='99'> +4.9218019e+02 </wgt>
<wgt id='100'> +5.0889952e+02 </wgt>
<wgt id='101'> +5.2105321e+02 </wgt>
<wgt id='102'> +4.8205704e+02 </wgt>
<wgt id='103'> +5.4538570e+02 </wgt>
<wgt id='104'> +5.0188072e+02 </wgt>
<wgt id='105'> +5.2767444e+02 </wgt>
<wgt id='106'> +4.7062852e+02 </wgt>
<wgt id='107'> +5.0606285e+02 </wgt>
<wgt id='108'> +4.5876713e+02 </wgt>
<wgt id='109'> +4.7797742e+02 </wgt>
<wgt id='110'> +5.0720181e+02 </wgt>
<wgt id='111'> +4.9392184e+02 </wgt>
<wgt id='112'> +4.8572177e+02 </wgt>
<wgt id='113'> +4.6610260e+02 </wgt>
<wgt id='114'> +5.1100588e+02 </wgt>
<wgt id='115'> +5.1494256e+02 </wgt>
<wgt id='116'> +4.9782844e+02 </wgt>
<wgt id='117'> +5.1498690e+02 </wgt>
<wgt id='118'> +5.1177339e+02 </wgt>
<wgt id='119'> +4.8667141e+02 </wgt>
<wgt id='120'> +5.0869148e+02 </wgt>
<wgt id='121'> +4.9223844e+02 </wgt>
<wgt id='122'> +4.9893996e+02 </wgt>
<wgt id='123'> +5.1028698e+02 </wgt>
<wgt id='124'> +5.3140805e+02 </wgt>
<wgt id='125'> +5.3316654e+02 </wgt>
<wgt id='126'> +5.2229734e+02 </wgt>
<wgt id='127'> +5.1789697e+02 </wgt>
<wgt id='128'> +4.7305789e+02 </wgt>
<wgt id='129'> +5.7010794e+02 </wgt>
<wgt id='130'> +5.0840813e+02 </wgt>
<wgt id='131'> +5.4200945e+02 </wgt>
<wgt id='132'> +4.9305047e+02 </wgt>
<wgt id='133'> +4.9618249e+02 </wgt>
<wgt id='134'> +4.7268819e+02 </wgt>
<wgt id='135'> +5.1822496e+02 </wgt>
<wgt id='136'> +4.7842754e+02 </wgt>
<wgt id='137'> +4.7328836e+02 </wgt>
<wgt id='138'> +4.5357688e+02 </wgt>
<wgt id='139'> +5.1198874e+02 </wgt>
<wgt id='140'> +5.4037366e+02 </wgt>
<wgt id='141'> +5.0236692e+02 </wgt>
<wgt id='142'> +5.1533415e+02 </wgt>
<wgt id='143'> +4.9693391e+02 </wgt>
<wgt id='144'> +5.0767833e+02 </wgt>
<wgt id='145'> +5.0593633e+02 </wgt>
</rwgt>
</event>
<event>
 4      1 +5.0481800e+02 2.51697400e+02 7.54677100e-03 1.11223700e-01
       21 -1    0    0  503  502 +0.0000000000e+00 +0.0000000000e+00 +1.4854313837e+03 1.4854313837e+03 0.0000000000e+00 0.0000e+00 1.0000e+00
       21 -1    0    0  501  503 -0.0000000000e+00 -0.0000000000e+00 -4.3596733619e+01 4.3596733619e+01 0.0000000000e+00 0.0000e+00 1.0000e+00
        6  1    1    2  501    0 +1.3493784598e+02 +1.2334650632e+02 +8.3366072219e+02 8.7082821648e+02 1.7300000000e+02 0.0000e+00 1.0000e+00
       -6  1    1    2    0  502 -1.3493784598e+02 -1.2334650632e+02 +6.0817392793e+02 6.5819990088e+02 1.7300000000e+02 0.0000e+00 1.0000e+00
<mgrwt>
<rscale>  2 0.25169740E+03</rscale>
<asrwt>0</asrwt>
<pdfrwt beam="1">  1       21 0.22852787E+00 0.25169740E+03</pdfrwt>
<pdfrwt beam="2">  1       21 0.67071909E-02 0.25169740E+03</pdfrwt>
<totfact> 0.13887644E+04</totfact>
</mgrwt>
<rwgt>
<wgt id='1'> +6.8259083e+02 </wgt>
<wgt id='2'> +5.7176097e+02 </wgt>
<wgt id='3'> +5.0481800e+02 </wgt>
<wgt id='4'> +6.8259083e+02 </wgt>
<wgt id='5'> +5.0248875e+02 </wgt>
<wgt id='6'> +6.1065248e+02 </wgt>
<wgt id='7'> +5.0832045e+02 </wgt>
<wgt id='8'> +4.4948507e+02 </wgt>
<wgt id='9'> +6.1065248e+02 </wgt>
<wgt id='10'> +4.4744039e+02 </wgt>
<wgt id='11'> +5.4371907e+02 </wgt>
<wgt id='12'> +4.5373984e+02 </wgt>
<wgt id='13'> +4.0198984e+02 </wgt>
<wgt id='14'> +5.4371906e+02 </wgt>
<wgt id='15'> +4.0019050e+02 </wgt>
<wgt id='16'> +5.6428844e+02 </wgt>
<wgt id='17'> +4.8103235e+02 </wgt>
<wgt id='18'> +4.2736951e+02 </wgt>
<wgt id='19'> +5.6428844e+02 </wgt>
<wgt id='20'> +4.2549064e+02 </wgt>
<wgt id='21'> +4.2765875e+02 </wgt>
<wgt id='22'> +3.8052568e+02 </wgt>
<wgt id='23'> +5.0481800e+02 </wgt>
<wgt id='24'> +3.7887754e+02 </wgt>
<wgt id='25'> +4.4948507e+02 </wgt>
<wgt id='26'> +3.8173914e+02 </wgt>
<wgt id='27'> +3.4031711e+02 </wgt>
<wgt id='28'> +4.4948507e+02 </wgt>
<wgt id='29'> +3.3886791e+02 </wgt>
<wgt id='30'> +4.7771608e+02 </wgt>
<wgt id='31'> +4.1036564e+02 </wgt>
<wgt id='32'> +3.6646799e+02 </wgt>
<wgt id='33'> +4.7771608e+02 </wgt>
<wgt id='34'> +3.6492535e+02 </wgt>
<wgt id='35'> +4.2736951e+02 </wgt>
<wgt id='36'> +3.6483296e+02 </wgt>
<wgt id='37'> +3.2629956e+02 </wgt>
<wgt id='38'> +4.2736951e+02 </wgt>
<wgt id='39'> +3.2494726e+02 </wgt>
<wgt id='40'> +3.8052568e+02 </wgt>
<wgt id='41'> +3.2565924e+02 </wgt>
<wgt id='42'> +2.9182083e+02 </wgt>
<wgt id='43'> +3.8052568e+02 </wgt>
<wgt id='44'> +2.9063269e+02 </wgt>
<wgt id='45'> +5.0481800e+02 </wgt>
<wgt id='46'> +5.1590802e+02 </wgt>
<wgt id='47'> +5.3842791e+02 </wgt>
<wgt id='48'> +5.0345192e+02 </wgt>
<wgt id='49'> +4.5645552e+02 </wgt>
<wgt id='50'> +5.9063077e+02 </wgt>
<wgt id='51'> +4.7245135e+02 </wgt>
<wgt id='52'> +4.5264733e+02 </wgt>
<wgt id='53'> +5.2030159e+02 </wgt>
<wgt id='54'> +5.3906556e+02 </wgt>
<wgt id='55'> +5.8913213e+02 </wgt>
<wgt id='56'> +4.8972472e+02 </wgt>
<wgt id='57'> +5.4044154e+02 </wgt>
<wgt id='58'> +4.4636718e+02 </wgt>
<wgt id='59'> +5.4720886e+02 </wgt>
<wgt id='60'> +4.9614439e+02 </wgt>
<wgt id='61'> +4.2221594e+02 </wgt>
<wgt id='62'> +4.5336381e+02 </wgt>
<wgt id='63'> +5.3743724e+02 </wgt>
<wgt id='64'> +5.0685875e+02 </wgt>
<wgt id='65'> +4.3669749e+02 </wgt>
<wgt id='66'> +5.1734035e+02 </wgt>
<wgt id='67'> +5.0837908e+02 </wgt>
<wgt id='68'> +6.4523468e+02 </wgt>
<wgt id='69'> +5.6633845e+02 </wgt>
<wgt id='70'> +5.7476799e+02 </wgt>
<wgt id='71'> +4.5581492e+02 </wgt>
<wgt id='72'> +4.4716143e+02 </wgt>
<wgt id='73'> +4.5008426e+02 </wgt>
<wgt id='74'> +6.0291979e+02 </wgt>
<wgt id='75'> +5.7391215e+02 </wgt>
<wgt id='76'> +5.2052507e+02 </wgt>
<wgt id='77'> +4.6365134e+02 </wgt>
<wgt id='78'> +4.2440355e+02 </wgt>
<wgt id='79'> +5.5502462e+02 </wgt>
<wgt id='80'> +4.3085450e+02 </wgt>
<wgt id='81'> +5.3673585e+02 </wgt>
<wgt id='82'> +5.0223043e+02 </wgt>
<wgt id='83'> +4.9943139e+02 </wgt>
<wgt id='84'> +4.7926794e+02 </wgt>
<wgt id='85'> +4.4137820e+02 </wgt>
<wgt id='86'> +5.4187621e+02 </wgt>
<wgt id='87'> +4.9039501e+02 </wgt>
<wgt id='88'> +4.9987563e+02 </wgt>
<wgt id='89'> +3.9467467e+02 </wgt>
<wgt id='90'> +4.4929819e+02 </wgt>
<wgt id='91'> +4.1829691e+02 </wgt>
<wgt id='92'> +4.7634616e+02 </wgt>
<wgt id='93'> +5.1472236e+02 </wgt>
<wgt id='94'> +4.5697553e+02 </wgt>
<wgt id='95'> +5.3021385e+02 </wgt>
<wgt id='96'> +5.2774514e+02 </wgt>
<wgt id='97'> +4.4548323e+02 </wgt>
<wgt id='98'> +5.6612665e+02 </wgt>
<wgt id='99'> +4.0721924e+02 </wgt>
<wgt id='100'> +3.6376595e+02 </wgt>
<wgt id='101'> +5.9367019e+02 </wgt>
<wgt id='102'> +5.7684915e+02 </wgt>
<wgt id='103'> +4.6132955e+02 </wgt>
<wgt id='104'> +5.5265734e+02 </wgt>
<wgt id='105'> +5.1537367e+02 </wgt>
<wgt id='106'> +5.0145565e+02 </wgt>
<wgt id='107'> +5.0040525e+02 </wgt>
<wgt id='108'> +4.7710112e+02 </wgt>
<wgt id='109'> +5.0261041e+02 </wgt>
<wgt id='110'> +4.4664509e+02 </wgt>
<wgt id='111'> +4.8576831e+02 </wgt>
<wgt id='112'> +5.3244428e+02 </wgt>
<wgt id='113'> +5.5889095e+02 </wgt>
<wgt id='114'> +5.2398329e+02 </wgt>
<wgt id='115'> +4.6802527e+02 </wgt>
<wgt id='116'> +5.6293203e+02 </wgt>
<wgt id='117'> +5.0002716e+02 </wgt>
<wgt id='118'> +5.1182379e+02 </wgt>
<wgt id='119'> +5.6540434e+02 </wgt>
<wgt id='120'> +5.0414406e+02 </wgt>
<wgt id='121'> +4.8546027e+02 </wgt>
<wgt id='122'> +4.8837361e+02 </wgt>
<wgt id='123'> +4.6989394e+02 </wgt>
<wgt id='124'> +5.6692851e+02 </wgt>
<wgt id='125'> +6.6179236e+02 </wgt>
<wgt id='126'> +4.8733076e+02 </wgt>
<wgt id='127'> +4.7063506e+02 </wgt>
<wgt id='128'> +4.9818735e+02 </wgt>
<wgt id='129'> +4.9921124e+02 </wgt>
<wgt id='130'> +5.1522127e+02 </wgt>
<wgt id='131'> +4.4847162e+02 </wgt>
<wgt id='132'> +5.4691723e+02 </wgt>
<wgt id='133'> +5.5646477e+02 </wgt>
<wgt id='134'> +5.4227770e+02 </wgt>
<wgt id='135'> +4.7581450e+02 </wgt>
<wgt id='136'> +6.0605577e+02 </wgt>
<wgt id='137'> +5.5401247e+02 </wgt>
<wgt id='138'> +5.3078300e+02 </wgt>
<wgt id='139'> +5.2075148e+02 </wgt>
<wgt id='140'> +4.8914079e+02 </wgt>
<wgt id='141'> +6.0234837e+02 </wgt>
<wgt id='142'> +3.1454109e+02 </wgt>
<wgt id='143'> +5.1349431e+02 </wgt>
<wgt id='144'> +4.4818610e+02 </wgt>
<wgt id='145'> +4.5773916e+02 </wgt>
</rwgt>
</event>
<event>
 4      1 +5.0481800e+02 1.74130200e+02 7.54677100e-03 1.17360800e-01
       21 -1    0    0  501  502 +0.0000000000e+00 +0.0000000000e+00 +8.8920529055e+02 8.8920529055e+02 0.0000000000e+00 0.0000e+00 1.0000e+00
       21 -1    0    0  502  503 -0.0000000000e+00 -0.0000000000e+00 -5.4185901460e+01 5.4185901460e+01 0.0000000000e+00 0.0000e+00 1.0000e+00
        6  1    1    2  501    0 +1.4496382884e+01 +1.3498043469e+01 +7.0470088861e+02 7.2589578088e+02 1.7300000000e+02 0.0000e+00 1.0000e+00
       -6  1    1    2    0  503 -1.4496382884e+01 -1.3498043469e+01 +1.3031850048e+02 2.1749541113e+02 1.7300000000e+02 0.0000e+00 1.0000e+00
<mgrwt>
<rscale>  2 0.17413025E+03</rscale>
<asrwt>0</asrwt>
<pdfrwt beam="1">  1       21 0.13680080E+00 0.17413025E+03</pdfrwt>
<pdfrwt beam="2">  1       21 0.83362932E-02 0.17413025E+03</pdfrwt>
<totfact> 0.42867898E+04</totfact>
</mgrwt>
<rwgt>
<wgt id='1'> +6.6145318e+02 </wgt>
<wgt id='2'> +1.0939074e+03 </wgt>
<wgt id='3'> +5.0481801e+02 </wgt>
<wgt id='4'> +6.6145318e+02 </wgt>
<wgt id='5'> +4.6295100e+02 </wgt>
<wgt id='6'> +6.2241386e+02 </wgt>
<wgt id='7'> +1.0473553e+03 </wgt>
<wgt id='8'> +4.6649274e+02 </wgt>
<wgt id='9'> +6.2241387e+02 </wgt>
<wgt id='10'> +4.2736416e+02 </wgt>
<wgt id='11'> +5.7516084e+02 </wgt>
<wgt id='12'> +9.9105701e+02 </wgt>
<wgt id='13'> +4.3082529e+02 </wgt>
<wgt id='14'> +5.7516085e+02 </wgt>
<wgt id='15'> +3.9482160e+02 </wgt>
<wgt id='16'> +5.3648142e+02 </wgt>
<wgt id='17'> +8.4658658e+02 </wgt>
<wgt id='18'> +4.2368661e+02 </wgt>
<wgt id='19'> +5.3648142e+02 </wgt>
<wgt id='20'> +3.9086580e+02 </wgt>
<wgt id='21'> +8.1055948e+02 </wgt>
<wgt id='22'> +3.9152076e+02 </wgt>
<wgt id='23'> +5.0481801e+02 </wgt>
<wgt id='24'> +3.6082012e+02 </wgt>
<wgt id='25'> +4.6649274e+02 </wgt>
<wgt id='26'> +7.6698960e+02 </wgt>
<wgt id='27'> +3.6158557e+02 </wgt>
<wgt id='28'> +4.6649274e+02 </wgt>
<wgt id='29'> +3.3334469e+02 </wgt>
<wgt id='30'> +4.5026126e+02 </wgt>
<wgt id='31'> +6.7458367e+02 </wgt>
<wgt id='32'> +3.6093728e+02 </wgt>
<wgt id='33'> +4.5026127e+02 </wgt>
<wgt id='34'> +3.3437190e+02 </wgt>
<wgt id='35'> +4.2368661e+02 </wgt>
<wgt id='36'> +6.4587628e+02 </wgt>
<wgt id='37'> +3.3353529e+02 </wgt>
<wgt id='38'> +4.2368661e+02 </wgt>
<wgt id='39'> +3.0866888e+02 </wgt>
<wgt id='40'> +3.9152075e+02 </wgt>
<wgt id='41'> +6.1115859e+02 </wgt>
<wgt id='42'> +3.0803360e+02 </wgt>
<wgt id='43'> +3.9152076e+02 </wgt>
<wgt id='44'> +2.8516463e+02 </wgt>
<wgt id='45'> +5.0481800e+02 </wgt>
<wgt id='46'> +5.1803460e+02 </wgt>
<wgt id='47'> +5.1637585e+02 </wgt>
<wgt id='48'> +5.0588678e+02 </wgt>
<wgt id='49'> +4.8618863e+02 </wgt>
<wgt id='50'> +5.9447137e+02 </wgt>
<wgt id='51'> +4.8622708e+02 </wgt>
<wgt id='52'> +4.9699326e+02 </wgt>
<wgt id='53'> +4.9719227e+02 </wgt>
<wgt id='54'> +5.2208648e+02 </wgt>
<wgt id='55'> +5.1089309e+02 </wgt>
<wgt id='56'> +4.6742934e+02 </wgt>
<wgt id='57'> +5.2098163e+02 </wgt>
<wgt id='58'> +4.8235972e+02 </wgt>
<wgt id='59'> +5.3753458e+02 </wgt>
<wgt id='60'> +5.0970337e+02 </wgt>
<wgt id='61'> +4.4169532e+02 </wgt>
<wgt id='62'> +4.8596415e+02 </wgt>
<wgt id='63'> +5.1509050e+02 </wgt>
<wgt id='64'> +5.0013355e+02 </wgt>
<wgt id='65'> +5.2225403e+02 </wgt>
<wgt id='66'> +5.0011055e+02 </wgt>
<wgt id='67'> +5.0680590e+02 </wgt>
<wgt id='68'> +5.7098764e+02 </wgt>
<wgt id='69'> +5.1402024e+02 </wgt>
<wgt id='70'> +5.0934827e+02 </wgt>
<wgt id='71'> +4.9755131e+02 </wgt>
<wgt id='72'> +4.8387215e+02 </wgt>
<wgt id='73'> +4.7785614e+02 </wgt>
<wgt id='74'> +5.4616288e+02 </wgt>
<wgt id='75'> +5.2217945e+02 </wgt>
<wgt id='76'> +5.0809516e+02 </wgt>
<wgt id='77'> +4.9279206e+02 </wgt>
<wgt id='78'> +4.6518432e+02 </wgt>
<wgt id='79'> +5.1294039e+02 </wgt>
<wgt id='80'> +4.7746487e+02 </wgt>
<wgt id='81'> +5.0284376e+02 </wgt>
<wgt id='82'> +4.8820340e+02 </wgt>
<wgt id='83'> +5.0307322e+02 </wgt>
<wgt id='84'> +5.2230699e+02 </wgt>
<wgt id='85'> +4.9285747e+02 </wgt>
<wgt id='86'> +5.1270647e+02 </wgt>
<wgt id='87'> +5.0640451e+02 </wgt>
<wgt id='88'> +4.9806295e+02 </wgt>
<wgt id='89'> +4.8802381e+02 </wgt>
<wgt id='90'> +5.0413412e+02 </wgt>
<wgt id='91'> +4.9012913e+02 </wgt>
<wgt id='92'> +4.6823548e+02 </wgt>
<wgt id='93'> +5.0500451e+02 </wgt>
<wgt id='94'> +4.8091009e+02 </wgt>
<wgt id='95'> +5.1515784e+02 </wgt>
<wgt id='96'> +5.3086329e+02 </wgt>
<wgt id='97'> +4.8487345e+02 </wgt>
<wgt id='98'> +5.0881461e+02 </wgt>
<wgt id='99'> +4.6146229e+02 </wgt>
<wgt id='100'> +4.4174988e+02 </wgt>
<wgt id='101'> +5.6936209e+02 </wgt>
<wgt id='102'> +5.3787560e+02 </wgt>
<wgt id='103'> +5.2312424e+02 </wgt>
<wgt id='104'> +5.1742765e+02 </wgt>
<wgt id='105'> +5.2074131e+02 </wgt>
<wgt id='106'> +4.7225826e+02 </wgt>
<wgt id='107'> +4.8065991e+02 </wgt>
<wgt id='108'> +4.5600581e+02 </wgt>
<wgt id='109'> +4.8682507e+02 </wgt>
<wgt id='110'> +4.9065538e+02 </wgt>
<wgt id='111'> +4.9318776e+02 </wgt>
<wgt id='112'> +4.9512273e+02 </wgt>
<wgt id='113'> +4.8767498e+02 </wgt>
<wgt id='114'> +5.0560658e+02 </wgt>
<wgt id='115'> +4.6918977e+02 </wgt>
<wgt id='116'> +5.3257945e+02 </wgt>
<wgt id='117'> +4.9439107e+02 </wgt>
<wgt id='118'> +5.2787606e+02 </wgt>
<wgt id='119'> +5.1412601e+02 </wgt>
<wgt id='120'> +4.9845579e+02 </wgt>
<wgt id='121'> +5.0200726e+02 </wgt>
<wgt id='122'> +4.9922314e+02 </wgt>
<wgt id='123'> +4.9928700e+02 </wgt>
<wgt id='124'> +5.6358652e+02 </wgt>
<wgt id='125'> +5.8427182e+02 </wgt>
<wgt id='126'> +5.0990061e+02 </wgt>
<wgt id='127'> +5.0650799e+02 </wgt>
<wgt id='128'> +4.6519559e+02 </wgt>
<wgt id='129'> +5.4782516e+02 </wgt>
<wgt id='130'> +4.8888619e+02 </wgt>
<wgt id='131'> +5.0388111e+02 </wgt>
<wgt id='132'> +5.4488326e+02 </wgt>
<wgt id='133'> +5.3079679e+02 </wgt>
<wgt id='134'> +5.0673568e+02 </wgt>
<wgt id='135'> +5.0144949e+02 </wgt>
<wgt id='136'> +5.5330952e+02 </wgt>
<wgt id='137'> +4.9547651e+02 </wgt>
<wgt id='138'> +4.8706311e+02 </wgt>
<wgt id='139'> +5.2059507e+02 </wgt>
<wgt id='140'> +5.0735571e+02 </wgt>
<wgt id='141'> +5.2953851e+02 </wgt>
<wgt id='142'> +4.3719837e+02 </wgt>
<wgt id='143'> +5.1959363e+02 </wgt>
<wgt id='144'> +4.8357309e+02 </wgt>
<wgt id='145'> +4.8788482e+02 </wgt>
</rwgt>
</event>
<event>
 4      1 +5.0481800e+02 2.10366600e+02 7.54677100e-03 1.14127600e-01
       21 -1    0    0  503  502 +0.0000000000e+00 +0.0000000000e+00 +1.8552408496e+02 1.8552408496e+02 0.0000000000e+00 0.0000e+00 -1.0000e+00
       21 -1    0    0  501  503 -0.0000000000e+00 -0.0000000000e+00 -2.3857259021e+02 2.3857259021e+02 0.0000000000e+00 0.0000e+00 -1.0000e+00
        6  1    1    2  501    0 +1.5067330028e+00 -1.1967808122e+02 -2.3886643615e+01 2.1171840995e+02 1.7300000000e+02 0.0000e+00 -1.0000e+00
       -6  1    1    2    0  502 -1.5067330028e+00 +1.1967808122e+02 -2.9161861636e+01 2.1237826523e+02 1.7300000000e+02 0.0000e+00 -1.0000e+00
<mgrwt>
<rscale>  2 0.21036662E+03</rscale>
<asrwt>0</asrwt>
<pdfrwt beam="1">  1       21 0.28542167E-01 0.21036662E+03</pdfrwt>
<pdfrwt beam="2">  1       21 0.36703475E-01 0.21036662E+03</pdfrwt>
<totfact> 0.83419244E+04</totfact>
</mgrwt>
<rwgt>
<wgt id='1'> +6.4469170e+02 </wgt>
<wgt id='2'> +5.0762870e+02 </wgt>
<wgt id='3'> +5.0481800e+02 </wgt>
<wgt id='4'> +6.4469171e+02 </wgt>
<wgt id='5'> +5.0480464e+02 </wgt>
<wgt id='6'> +6.1655851e+02 </wgt>
<wgt id='7'> +4.7787237e+02 </wgt>
<wgt id='8'> +4.7521917e+02 </wgt>
<wgt id='9'> +6.1655852e+02 </wgt>
<wgt id='10'> +4.7520657e+02 </wgt>
<wgt id='11'> +5.8040803e+02 </wgt>
<wgt id='12'> +4.4962652e+02 </wgt>
<wgt id='13'> +4.4712814e+02 </wgt>
<wgt id='14'> +5.8040803e+02 </wgt>
<wgt id='15'> +4.4711628e+02 </wgt>
<wgt id='16'> +5.2785254e+02 </wgt>
<wgt id='17'> +4.2810318e+02 </wgt>
<wgt id='18'> +4.2587083e+02 </wgt>
<wgt id='19'> +5.2785254e+02 </wgt>
<wgt id='20'> +4.2586020e+02 </wgt>
<wgt id='21'> +4.0300850e+02 </wgt>
<wgt id='22'> +4.0090087e+02 </wgt>
<wgt id='23'> +5.0481800e+02 </wgt>
<wgt id='24'> +4.0089085e+02 </wgt>
<wgt id='25'> +4.7521916e+02 </wgt>
<wgt id='26'> +3.7918767e+02 </wgt>
<wgt id='27'> +3.7720293e+02 </wgt>
<wgt id='28'> +4.7521917e+02 </wgt>
<wgt id='29'> +3.7719349e+02 </wgt>
<wgt id='30'> +4.4530305e+02 </wgt>
<wgt id='31'> +3.6584718e+02 </wgt>
<wgt id='32'> +3.6404481e+02 </wgt>
<wgt id='33'> +4.4530305e+02 </wgt>
<wgt id='34'> +3.6403622e+02 </wgt>
<wgt id='35'> +4.2587082e+02 </wgt>
<wgt id='36'> +3.4440184e+02 </wgt>
<wgt id='37'> +3.4269988e+02 </wgt>
<wgt id='38'> +4.2587083e+02 </wgt>
<wgt id='39'> +3.4269179e+02 </wgt>
<wgt id='40'> +4.0090087e+02 </wgt>
<wgt id='41'> +3.2404510e+02 </wgt>
<wgt id='42'> +3.2244230e+02 </wgt>
<wgt id='43'> +4.0090087e+02 </wgt>
<wgt id='44'> +3.2243468e+02 </wgt>
<wgt id='45'> +5.0481800e+02 </wgt>
<wgt id='46'> +5.0294498e+02 </wgt>
<wgt id='47'> +5.2212788e+02 </wgt>
<wgt id='48'> +5.0531335e+02 </wgt>
<wgt id='49'> +5.0409747e+02 </wgt>
<wgt id='50'> +5.8426802e+02 </wgt>
<wgt id='51'> +4.9517927e+02 </wgt>
<wgt id='52'> +5.0117408e+02 </wgt>
<wgt id='53'> +5.1283732e+02 </wgt>
<wgt id='54'> +5.0763813e+02 </wgt>
<wgt id='55'> +4.5052136e+02 </wgt>
<wgt id='56'> +4.7213323e+02 </wgt>
<wgt id='57'> +4.9059694e+02 </wgt>
<wgt id='58'> +5.0988501e+02 </wgt>
<wgt id='59'> +4.9429251e+02 </wgt>
<wgt id='60'> +4.8150368e+02 </wgt>
<wgt id='61'> +4.9722440e+02 </wgt>
<wgt id='62'> +4.9805411e+02 </wgt>
<wgt id='63'> +5.0531382e+02 </wgt>
<wgt id='64'> +5.0203216e+02 </wgt>
<wgt id='65'> +5.9709872e+02 </wgt>
<wgt id='66'> +4.9260498e+02 </wgt>
<wgt id='67'> +5.0944074e+02 </wgt>
<wgt id='68'> +5.3798408e+02 </wgt>
<wgt id='69'> +4.9058354e+02 </wgt>
<wgt id='70'> +4.9678091e+02 </wgt>
<wgt id='71'> +5.1442025e+02 </wgt>
<wgt id='72'> +4.9323068e+02 </wgt>
<wgt id='73'> +4.9912889e+02 </wgt>
<wgt id='74'> +5.1752294e+02 </wgt>
<wgt id='75'> +5.1573149e+02 </wgt>
<wgt id='76'> +4.9009161e+02 </wgt>
<wgt id='77'> +4.8488991e+02 </wgt>
<wgt id='78'> +5.0796341e+02 </wgt>
<wgt id='79'> +4.8269252e+02 </wgt>
<wgt id='80'> +5.0150648e+02 </wgt>
<wgt id='81'> +4.9622777e+02 </wgt>
<wgt id='82'> +5.2029902e+02 </wgt>
<wgt id='83'> +5.1484645e+02 </wgt>
<wgt id='84'> +5.5415377e+02 </wgt>
<wgt id='85'> +5.3191709e+02 </wgt>
<wgt id='86'> +5.0051482e+02 </wgt>
<wgt id='87'> +5.0402379e+02 </wgt>
<wgt id='88'> +5.1361889e+02 </wgt>
<wgt id='89'> +5.1581444e+02 </wgt>
<wgt id='90'> +5.0929079e+02 </wgt>
<wgt id='91'> +5.3829696e+02 </wgt>
<wgt id='92'> +4.6723892e+02 </wgt>
<wgt id='93'> +4.9505840e+02 </wgt>
<wgt id='94'> +5.0360072e+02 </wgt>
<wgt id='95'> +4.8424141e+02 </wgt>
<wgt id='96'> +5.4369443e+02 </wgt>
<wgt id='97'> +5.1408558e+02 </wgt>
<wgt id='98'> +4.8084973e+02 </wgt>
<wgt id='99'> +4.9116868e+02 </wgt>
<wgt id='100'> +5.0461676e+02 </wgt>
<wgt id='101'> +5.2555122e+02 </wgt>
<wgt id='102'> +4.8643853e+02 </wgt>
<wgt id='103'> +5.4659344e+02 </wgt>
<wgt id='104'> +5.0322169e+02 </wgt>
<wgt id='105'> +5.2571412e+02 </wgt>
<wgt id='106'> +4.6726752e+02 </wgt>
<wgt id='107'> +5.0203419e+02 </wgt>
<wgt id='108'> +4.5568913e+02 </wgt>
<wgt id='109'> +4.7595722e+02 </wgt>
<wgt id='110'> +5.0625751e+02 </wgt>
<wgt id='111'> +4.9266559e+02 </wgt>
<wgt id='112'> +4.8388907e+02 </wgt>
<wgt id='113'> +4.6484239e+02 </wgt>
<wgt id='114'> +5.0693521e+02 </wgt>
<wgt id='115'> +5.1061625e+02 </wgt>
<wgt id='116'> +5.0140158e+02 </wgt>
<wgt id='117'> +5.1337273e+02 </wgt>
<wgt id='118'> +5.1478176e+02 </wgt>
<wgt id='119'> +4.8581867e+02 </wgt>
<wgt id='120'> +5.0606144e+02 </wgt>
<wgt id='121'> +4.9107493e+02 </wgt>
<wgt id='122'> +4.9852797e+02 </wgt>
<wgt id='123'> +5.1107740e+02 </wgt>
<wgt id='124'> +5.3507649e+02 </wgt>
<wgt id='125'> +5.3654788e+02 </wgt>
<wgt id='126'> +5.2350108e+02 </wgt>
<wgt id='127'> +5.1883872e+02 </wgt>
<wgt id='128'> +4.7138594e+02 </wgt>
<wgt id='129'> +5.7033640e+02 </wgt>
<wgt id='130'> +5.0910645e+02 </wgt>
<wgt id='131'> +5.4117771e+02 </wgt>
<wgt id='132'> +4.9574537e+02 </wgt>
<wgt id='133'> +4.9888939e+02 </wgt>
<wgt id='134'> +4.7377496e+02 </wgt>
<wgt id='135'> +5.1785370e+02 </wgt>
<wgt id='136'> +4.8076931e+02 </wgt>
<wgt id='137'> +4.7482241e+02 </wgt>
<wgt id='138'> +4.5727409e+02 </wgt>
<wgt id='139'> +5.1312227e+02 </wgt>
<wgt id='140'> +5.3831747e+02 </wgt>
<wgt id='141'> +5.0338146e+02 </wgt>
<wgt id='142'> +5.1180803e+02 </wgt>
<wgt id='143'> +4.9845879e+02 </wgt>
<wgt id='144'> +5.0577024e+02 </wgt>
<wgt id='145'> +5.0594740e+02 </wgt>
</rwgt>
</event>
<event>
 4      1 +5.0481800e+02 2.27768000e+02 7.54677100e-03 1.12822100e-01
       21 -1    0    0  503  502 +0.0000000000e+00 +0.0000000000e+00 +8.1475240113e+01 8.1475240113e+01 0.0000000000e+00 0.0000e+00 1.0000e+00
       21 -1    0    0  501  503 -0.0000000000e+00 -0.0000000000e+00 -6.5571175551e+02 6.5571175551e+02 0.0000000000e+00 0.0000e+00 1.0000e+00
        6  1    1    2  501    0 +1.4294952930e+02 -3.8919193795e+01 -3.4982052813e+02 4.1743583156e+02 1.7300000000e+02 0.0000e+00 1.0000e+00
       -6  1    1    2    0  502 -1.4294952930e+02 +3.8919193795e+01 -2.2441598727e+02 3.1975116406e+02 1.7300000000e+02 0.0000e+00 1.0000e+00
<mgrwt>
<rscale>  2 0.22776802E+03</rscale>
<asrwt>0</asrwt>
<pdfrwt beam="1">  1       21 0.12534653E-01 0.22776802E+03</pdfrwt>
<pdfrwt beam="2">  1       21 0.10087873E+00 0.22776802E+03</pdfrwt>
<totfact> 0.42865834E+04</totfact>
</mgrwt>
<rwgt>
<wgt id='1'> +6.5347410e+02 </wgt>
<wgt id='2'> +5.6244897e+02 </wgt>
<wgt id='3'> +5.0481800e+02 </wgt>
<wgt id='4'> +6.5347410e+02 </wgt>
<wgt id='5'> +5.0215005e+02 </wgt>
<wgt id='6'> +6.1383419e+02 </wgt>
<wgt id='7'> +5.2280942e+02 </wgt>
<wgt id='8'> +4.6857615e+02 </wgt>
<wgt id='9'> +6.1383419e+02 </wgt>
<wgt id='10'> +4.6610600e+02 </wgt>
<wgt id='11'> +5.6976586e+02 </wgt>
<wgt id='12'> +4.8537104e+02 </wgt>
<wgt id='13'> +4.3516048e+02 </wgt>
<wgt id='14'> +5.6976586e+02 </wgt>
<wgt id='15'> +4.3287486e+02 </wgt>
<wgt id='16'> +5.3741791e+02 </wgt>
<wgt id='17'> +4.7160504e+02 </wgt>
<wgt id='18'> +4.2651097e+02 </wgt>
<wgt id='19'> +5.3741791e+02 </wgt>
<wgt id='20'> +4.2437964e+02 </wgt>
<wgt id='21'> +4.3836787e+02 </wgt>
<wgt id='22'> +3.9589093e+02 </wgt>
<wgt id='23'> +5.0481800e+02 </wgt>
<wgt id='24'> +3.9391791e+02 </wgt>
<wgt id='25'> +4.6857615e+02 </wgt>
<wgt id='26'> +4.0697635e+02 </wgt>
<wgt id='27'> +3.6765868e+02 </wgt>
<wgt id='28'> +4.6857615e+02 </wgt>
<wgt id='29'> +3.6583343e+02 </wgt>
<wgt id='30'> +4.5405401e+02 </wgt>
<wgt id='31'> +4.0155547e+02 </wgt>
<wgt id='32'> +3.6510028e+02 </wgt>
<wgt id='33'> +4.5405401e+02 </wgt>
<wgt id='34'> +3.6336855e+02 </wgt>
<wgt id='35'> +4.2651097e+02 </wgt>
<wgt id='36'> +3.7325516e+02 </wgt>
<wgt id='37'> +3.3888904e+02 </wgt>
<wgt id='38'> +4.2651097e+02 </wgt>
<wgt id='39'> +3.3728616e+02 </wgt>
<wgt id='40'> +3.9589093e+02 </wgt>
<wgt id='41'> +3.4652637e+02 </wgt>
<wgt id='42'> +3.1472177e+02 </wgt>
<wgt id='43'> +3.9589093e+02 </wgt>
<wgt id='44'> +3.1323926e+02 </wgt>
<wgt id='45'> +5.0481800e+02 </wgt>
<wgt id='46'> +5.1479821e+02 </wgt>
<wgt id='47'> +5.1989678e+02 </wgt>
<wgt id='48'> +5.0744938e+02 </wgt>
<wgt id='49'> +4.9527056e+02 </wgt>
<wgt id='50'> +5.9699394e+02 </wgt>
<wgt id='51'> +4.9156579e+02 </wgt>
<wgt id='52'> +5.0216987e+02 </wgt>
<wgt id='53'> +4.9965958e+02 </wgt>
<wgt id='54'> +5.1401094e+02 </wgt>
<wgt id='55'> +4.8206636e+02 </wgt>
<wgt id='56'> +4.6389663e+02 </wgt>
<wgt id='57'> +5.0787435e+02 </wgt>
<wgt id='58'> +4.9321826e+02 </wgt>
<wgt id='59'> +5.2303754e+02 </wgt>
<wgt id='60'> +5.0254433e+02 </wgt>
<wgt id='61'> +4.4841670e+02 </wgt>
<wgt id='62'> +4.9367227e+02 </wgt>
<wgt id='63'> +5.0835238e+02 </wgt>
<wgt id='64'> +4.9661003e+02 </wgt>
<wgt id='65'> +5.5576652e+02 </wgt>
<wgt id='66'> +4.9701071e+02 </wgt>
<wgt id='67'> +5.0770664e+02 </wgt>
<wgt id='68'> +5.5666228e+02 </wgt>
<wgt id='69'> +5.0518962e+02 </wgt>
<wgt id='70'> +5.0080189e+02 </wgt>
<wgt id='71'> +5.0762550e+02 </wgt>
<wgt id='72'> +4.8567286e+02 </wgt>
<wgt id='73'> +4.8754061e+02 </wgt>
<wgt id='74'> +5.3441782e+02 </wgt>
<wgt id='75'> +5.1739547e+02 </wgt>
<wgt id='76'> +4.9969638e+02 </wgt>
<wgt id='77'> +4.9364840e+02 </wgt>
<wgt id='78'> +4.8172976e+02 </wgt>
<wgt id='79'> +5.0044219e+02 </wgt>
<wgt id='80'> +4.8956017e+02 </wgt>
<wgt id='81'> +4.9720122e+02 </wgt>
<wgt id='82'> +4.9779009e+02 </wgt>
<wgt id='83'> +5.0974238e+02 </wgt>
<wgt id='84'> +5.3859289e+02 </wgt>
<wgt id='85'> +5.1096399e+02 </wgt>
<wgt id='86'> +5.0803058e+02 </wgt>
<wgt id='87'> +5.0730578e+02 </wgt>
<wgt id='88'> +5.0651398e+02 </wgt>
<wgt id='89'> +5.0623095e+02 </wgt>
<wgt id='90'> +5.1152842e+02 </wgt>
<wgt id='91'> +5.1307359e+02 </wgt>
<wgt id='92'> +4.6384024e+02 </wgt>
<wgt id='93'> +5.0234399e+02 </wgt>
<wgt id='94'> +4.9003282e+02 </wgt>
<wgt id='95'> +5.0045873e+02 </wgt>
<wgt id='96'> +5.3834985e+02 </wgt>
<wgt id='97'> +4.9757350e+02 </wgt>
<wgt id='98'> +4.9656963e+02 </wgt>
<wgt id='99'> +4.7635973e+02 </wgt>
<wgt id='100'> +4.6809940e+02 </wgt>
<wgt id='101'> +5.5570734e+02 </wgt>
<wgt id='102'> +5.1973100e+02 </wgt>
<wgt id='103'> +5.3836983e+02 </wgt>
<wgt id='104'> +5.1077695e+02 </wgt>
<wgt id='105'> +5.2095828e+02 </wgt>
<wgt id='106'> +4.6431681e+02 </wgt>
<wgt id='107'> +4.8345738e+02 </wgt>
<wgt id='108'> +4.4998644e+02 </wgt>
<wgt id='109'> +4.7834517e+02 </wgt>
<wgt id='110'> +4.9853761e+02 </wgt>
<wgt id='111'> +4.9188600e+02 </wgt>
<wgt id='112'> +4.8267979e+02 </wgt>
<wgt id='113'> +4.7275593e+02 </wgt>
<wgt id='114'> +4.9784829e+02 </wgt>
<wgt id='115'> +4.8037430e+02 </wgt>
<wgt id='116'> +5.2219167e+02 </wgt>
<wgt id='117'> +4.9958915e+02 </wgt>
<wgt id='118'> +5.2705999e+02 </wgt>
<wgt id='119'> +4.9688460e+02 </wgt>
<wgt id='120'> +4.9495897e+02 </wgt>
<wgt id='121'> +4.9628752e+02 </wgt>
<wgt id='122'> +4.9905908e+02 </wgt>
<wgt id='123'> +5.0642448e+02 </wgt>
<wgt id='124'> +5.5610913e+02 </wgt>
<wgt id='125'> +5.6411232e+02 </wgt>
<wgt id='126'> +5.1798869e+02 </wgt>
<wgt id='127'> +5.1508088e+02 </wgt>
<wgt id='128'> +4.6240306e+02 </wgt>
<wgt id='129'> +5.6069786e+02 </wgt>
<wgt id='130'> +5.0017752e+02 </wgt>
<wgt id='131'> +5.2226405e+02 </wgt>
<wgt id='132'> +5.2891981e+02 </wgt>
<wgt id='133'> +5.1908473e+02 </wgt>
<wgt id='134'> +4.9302920e+02 </wgt>
<wgt id='135'> +5.0981268e+02 </wgt>
<wgt id='136'> +5.2330996e+02 </wgt>
<wgt id='137'> +4.8624207e+02 </wgt>
<wgt id='138'> +4.7641905e+02 </wgt>
<wgt id='139'> +5.1913920e+02 </wgt>
<wgt id='140'> +5.1824808e+02 </wgt>
<wgt id='141'> +5.1597808e+02 </wgt>
<wgt id='142'> +4.7277224e+02 </wgt>
<wgt id='143'> +5.1405313e+02 </wgt>
<wgt id='144'> +4.9318948e+02 </wgt>
<wgt id='145'> +4.9883403e+02 </wgt>
</rwgt>
</event>
<event>
 4      1 +5.0481800e+02 2.46005600e+02 7.54677100e-03 1.11585600e-01
        2 -1    0    0  502    0 +0.0000000000e+00 +0.0000000000e+00 +6.0740468482e+02 6.0740468482e+02 0.0000000000e+00 0.0000e+00 1.0000e+00
       -2 -1    0    0    0  501 -0.0000000000e+00 -0.0000000000e+00 -1.0342671405e+02 1.0342671405e+02 0.0000000000e+00 0.0000e+00 -1.0000e+00
        6  1    1    2  502    0 -3.1573228520e+01 -1.7202578948e+02 +3.2004090303e+02 4.0366436630e+02 1.7300000000e+02 0.0000e+00 -1.0000e+00
       -6  1    1    2    0  501 +3.1573228520e+01 +1.7202578948e+02 +1.8393706775e+02 3.0716703257e+02 1.7300000000e+02 0.0000e+00 1.0000e+00
<mgrwt>
<rscale>  2 0.24600557E+03</rscale>
<asrwt>0</asrwt>
<pdfrwt beam="1">  1        2 0.93446872E-01 0.24600557E+03</pdfrwt>
<pdfrwt beam="2">  1       -2 0.15911803E-01 0.24600557E+03</pdfrwt>
<totfact> 0.15405361E+03</totfact>
</mgrwt>
<rwgt>
<wgt id='1'> +6.0462255e+02 </wgt>
<wgt id='2'> +5.2897829e+02 </wgt>
<wgt id='3'> +5.0481800e+02 </wgt>
<wgt id='4'> +6.0462255e+02 </wgt>
<wgt id='5'> +5.0256290e+02 </wgt>
<wgt id='6'> +6.1137084e+02 </wgt>
<wgt id='7'> +5.3250074e+02 </wgt>
<wgt id='8'> +5.0740073e+02 </wgt>
<wgt id='9'> +6.1137084e+02 </wgt>
<wgt id='10'> +5.0506294e+02 </wgt>
<wgt id='11'> +6.1449871e+02 </wgt>
<wgt id='12'> +5.3338964e+02 </wgt>
<wgt id='13'> +5.0765663e+02 </wgt>
<wgt id='14'> +6.1449871e+02 </wgt>
<wgt id='15'> +5.0526320e+02 </wgt>
<wgt id='16'> +4.9924583e+02 </wgt>
<wgt id='17'> +4.4590658e+02 </wgt>
<wgt id='18'> +4.2717458e+02 </wgt>
<wgt id='19'> +4.9924583e+02 </wgt>
<wgt id='20'> +4.2542482e+02 </wgt>
<wgt id='21'> +4.4887586e+02 </wgt>
<wgt id='22'> +4.2936007e+02 </wgt>
<wgt id='23'> +5.0481800e+02 </wgt>
<wgt id='24'> +4.2754112e+02 </wgt>
<wgt id='25'> +5.0740073e+02 </wgt>
<wgt id='26'> +4.4962516e+02 </wgt>
<wgt id='27'> +4.2957662e+02 </wgt>
<wgt id='28'> +5.0740073e+02 </wgt>
<wgt id='29'> +4.2771065e+02 </wgt>
<wgt id='30'> +4.2245944e+02 </wgt>
<wgt id='31'> +3.8091552e+02 </wgt>
<wgt id='32'> +3.6615672e+02 </wgt>
<wgt id='33'> +4.2245944e+02 </wgt>
<wgt id='34'> +3.6477418e+02 </wgt>
<wgt id='35'> +4.2717458e+02 </wgt>
<wgt id='36'> +3.8345202e+02 </wgt>
<wgt id='37'> +3.6803003e+02 </wgt>
<wgt id='38'> +4.2717458e+02 </wgt>
<wgt id='39'> +3.6658878e+02 </wgt>
<wgt id='40'> +4.2936007e+02 </wgt>
<wgt id='41'> +3.8409212e+02 </wgt>
<wgt id='42'> +3.6821564e+02 </wgt>
<wgt id='43'> +4.2936007e+02 </wgt>
<wgt id='44'> +3.6673414e+02 </wgt>
<wgt id='45'> +5.0481800e+02 </wgt>
<wgt id='46'> +5.0683968e+02 </wgt>
<wgt id='47'> +4.8860933e+02 </wgt>
<wgt id='48'> +4.9527677e+02 </wgt>
<wgt id='49'> +5.0292406e+02 </wgt>
<wgt id='50'> +4.5675520e+02 </wgt>
<wgt id='51'> +5.1620972e+02 </wgt>
<wgt id='52'> +4.9406195e+02 </wgt>
<wgt id='53'> +5.1566990e+02 </wgt>
<wgt id='54'> +4.9284702e+02 </wgt>
<wgt id='55'> +4.8389386e+02 </wgt>
<wgt id='56'> +5.4507826e+02 </wgt>
<wgt id='57'> +4.9598756e+02 </wgt>
<wgt id='58'> +5.1465868e+02 </wgt>
<wgt id='59'> +4.8538610e+02 </wgt>
<wgt id='60'> +5.0383344e+02 </wgt>
<wgt id='61'> +5.5554632e+02 </wgt>
<wgt id='62'> +5.3125738e+02 </wgt>
<wgt id='63'> +5.1317306e+02 </wgt>
<wgt id='64'> +4.9786888e+02 </wgt>
<wgt id='65'> +4.8958816e+02 </wgt>
<wgt id='66'> +5.3119145e+02 </wgt>
<wgt id='67'> +5.1726078e+02 </wgt>
<wgt id='68'> +4.1907816e+02 </wgt>
<wgt id='69'> +4.7391179e+02 </wgt>
<wgt id='70'> +4.9001578e+02 </wgt>
<wgt id='71'> +5.1904852e+02 </wgt>
<wgt id='72'> +5.1766814e+02 </wgt>
<wgt id='73'> +5.1505879e+02 </wgt>
<wgt id='74'> +4.5241259e+02 </wgt>
<wgt id='75'> +4.7577960e+02 </wgt>
<wgt id='76'> +5.2246963e+02 </wgt>
<wgt id='77'> +5.2499796e+02 </wgt>
<wgt id='78'> +5.2764483e+02 </wgt>
<wgt id='79'> +5.1011757e+02 </wgt>
<wgt id='80'> +5.4319299e+02 </wgt>
<wgt id='81'> +5.0422929e+02 </wgt>
<wgt id='82'> +5.0136496e+02 </wgt>
<wgt id='83'> +4.8356720e+02 </wgt>
<wgt id='84'> +5.0630649e+02 </wgt>
<wgt id='85'> +5.0263943e+02 </wgt>
<wgt id='86'> +5.0707855e+02 </wgt>
<wgt id='87'> +5.0872205e+02 </wgt>
<wgt id='88'> +5.0843183e+02 </wgt>
<wgt id='89'> +5.1984542e+02 </wgt>
<wgt id='90'> +5.4969039e+02 </wgt>
<wgt id='91'> +4.8227656e+02 </wgt>
<wgt id='92'> +5.3644658e+02 </wgt>
<wgt id='93'> +4.9306311e+02 </wgt>
<wgt id='94'> +5.1412055e+02 </wgt>
<wgt id='95'> +5.0309725e+02 </wgt>
<wgt id='96'> +4.9115385e+02 </wgt>
<wgt id='97'> +5.2289846e+02 </wgt>
<wgt id='98'> +5.1182992e+02 </wgt>
<wgt id='99'> +5.2793827e+02 </wgt>
<wgt id='100'> +5.5404136e+02 </wgt>
<wgt id='101'> +4.4228568e+02 </wgt>
<wgt id='102'> +4.6994559e+02 </wgt>
<wgt id='103'> +4.8654541e+02 </wgt>
<wgt id='104'> +4.9425121e+02 </wgt>
<wgt id='105'> +4.9578513e+02 </wgt>
<wgt id='106'> +5.3643847e+02 </wgt>
<wgt id='107'> +4.9811346e+02 </wgt>
<wgt id='108'> +5.5751195e+02 </wgt>
<wgt id='109'> +5.3096402e+02 </wgt>
<wgt id='110'> +5.2846282e+02 </wgt>
<wgt id='111'> +5.2596146e+02 </wgt>
<wgt id='112'> +5.1569859e+02 </wgt>
<wgt id='113'> +5.0874517e+02 </wgt>
<wgt id='114'> +5.0917097e+02 </wgt>
<wgt id='115'> +5.3240697e+02 </wgt>
<wgt id='116'> +4.8846819e+02 </wgt>
<wgt id='117'> +5.0568451e+02 </wgt>
<wgt id='118'> +4.7031122e+02 </wgt>
<wgt id='119'> +5.0623963e+02 </wgt>
<wgt id='120'> +5.0057085e+02 </wgt>
<wgt id='121'> +5.0907029e+02 </wgt>
<wgt id='122'> +5.1837251e+02 </wgt>
<wgt id='123'> +5.3967125e+02 </wgt>
<wgt id='124'> +4.7377169e+02 </wgt>
<wgt id='125'> +4.3935459e+02 </wgt>
<wgt id='126'> +5.0113718e+02 </wgt>
<wgt id='127'> +4.9977099e+02 </wgt>
<wgt id='128'> +5.2512667e+02 </wgt>
<wgt id='129'> +4.6382474e+02 </wgt>
<wgt id='130'> +4.9680069e+02 </wgt>
<wgt id='131'> +4.9331793e+02 </wgt>
<wgt id='132'> +4.7179188e+02 </wgt>
<wgt id='133'> +5.0102800e+02 </wgt>
<wgt id='134'> +4.8957628e+02 </wgt>
<wgt id='135'> +4.9434541e+02 </wgt>
<wgt id='136'> +4.7932477e+02 </wgt>
<wgt id='137'> +5.2847152e+02 </wgt>
<wgt id='138'> +5.1809637e+02 </wgt>
<wgt id='139'> +4.9640301e+02 </wgt>
<wgt id='140'> +4.8440924e+02 </wgt>
<wgt id='141'> +4.7791217e+02 </wgt>
<wgt id='142'> +5.6114928e+02 </wgt>
<wgt id='143'> +5.1983522e+02 </wgt>
<wgt id='144'> +5.4008689e+02 </wgt>
<wgt id='145'> +5.2054159e+02 </wgt>
</rwgt>
</event>
<event>
 4      1 +5.0481800e+02 1.88905700e+02 7.54677100e-03 1.15945200e-01
       21 -1    0    0  503  502 +0.0000000000e+00 +0.0000000000e+00 +3.3682598665e+01 3.3682598665e+01 0.0000000000e+00 0.0000e+00 1.0000e+00
       21 -1    0    0  501  503 -0.0000000000e+00 -0.0000000000e+00 -1.1218069434e+03 1.1218069434e+03 0.0000000000e+00 0.0000e+00 1.0000e+00
        6  1    1    2  501    0 -7.2150033891e+01 +2.3467489723e+01 -4.0785933668e+02 4.4948257918e+02 1.7300000000e+02 0.0000e+00 1.0000e+00
       -6  1    1    2    0  502 +7.2150033891e+01 -2.3467489723e+01 -6.8026500804e+02 7.0600696287e+02 1.7300000000e+02 0.0000e+00 1.0000e+00
<mgrwt>
<rscale>  2 0.18890567E+03</rscale>
<asrwt>0</asrwt>
<pdfrwt beam="1">  1       21 0.51819384E-02 0.18890567E+03</pdfrwt>
<pdfrwt beam="2">  1       21 0.17258568E+00 0.18890567E+03</pdfrwt>
<totfact> 0.51931177E+04</totfact>
</mgrwt>
<rwgt>
<wgt id='1'> +6.6306531e+02 </wgt>
<wgt id='2'> +7.0872801e+02 </wgt>
<wgt id='3'> +5.0481800e+02 </wgt>
<wgt id='4'> +6.6306531e+02 </wgt>
<wgt id='5'> +4.9934796e+02 </wgt>
<wgt id='6'> +6.2005001e+02 </wgt>
<wgt id='7'> +6.6490026e+02 </wgt>
<wgt id='8'> +4.6410861e+02 </wgt>
<wgt id='9'> +6.2005001e+02 </wgt>
<wgt id='10'> +4.5899806e+02 </wgt>
<wgt id='11'> +5.7004810e+02 </wgt>
<wgt id='12'> +6.1255748e+02 </wgt>
<wgt id='13'> +4.2691912e+02 </wgt>
<wgt id='14'> +5.7004811e+02 </wgt>
<wgt id='15'> +4.2223965e+02 </wgt>
<wgt id='16'> +5.3983920e+02 </wgt>
<wgt id='17'> +5.7289290e+02 </wgt>
<wgt id='18'> +4.2477071e+02 </wgt>
<wgt id='19'> +5.3983921e+02 </wgt>
<wgt id='20'> +4.2050513e+02 </wgt>
<wgt id='21'> +5.3746520e+02 </wgt>
<wgt id='22'> +3.9051646e+02 </wgt>
<wgt id='23'> +5.0481800e+02 </wgt>
<wgt id='24'> +3.8652614e+02 </wgt>
<wgt id='25'> +4.6410860e+02 </wgt>
<wgt id='26'> +4.9515446e+02 </wgt>
<wgt id='27'> +3.5922399e+02 </wgt>
<wgt id='28'> +4.6410861e+02 </wgt>
<wgt id='29'> +3.5557158e+02 </wgt>
<wgt id='30'> +4.5423871e+02 </wgt>
<wgt id='31'> +4.7933972e+02 </wgt>
<wgt id='32'> +3.6240052e+02 </wgt>
<wgt id='33'> +4.5423872e+02 </wgt>
<wgt id='34'> +3.5894724e+02 </wgt>
<wgt id='35'> +4.2477070e+02 </wgt>
<wgt id='36'> +4.4969735e+02 </wgt>
<wgt id='37'> +3.3317591e+02 </wgt>
<wgt id='38'> +4.2477071e+02 </wgt>
<wgt id='39'> +3.2994245e+02 </wgt>
<wgt id='40'> +3.9051646e+02 </wgt>
<wgt id='41'> +4.1429593e+02 </wgt>
<wgt id='42'> +3.0647820e+02 </wgt>
<wgt id='43'> +3.9051646e+02 </wgt>
<wgt id='44'> +3.0351933e+02 </wgt>
<wgt id='45'> +5.0481800e+02 </wgt>
<wgt id='46'> +5.1888705e+02 </wgt>
<wgt id='47'> +5.1660156e+02 </wgt>
<wgt id='48'> +5.0402078e+02 </wgt>
<wgt id='49'> +4.7471777e+02 </wgt>
<wgt id='50'> +5.8625732e+02 </wgt>
<wgt id='51'> +4.7996422e+02 </wgt>
<wgt id='52'> +4.8401598e+02 </wgt>
<wgt id='53'> +5.0038358e+02 </wgt>
<wgt id='54'> +5.3078631e+02 </wgt>
<wgt id='55'> +5.4654518e+02 </wgt>
<wgt id='56'> +4.7851235e+02 </wgt>
<wgt id='57'> +5.3213701e+02 </wgt>
<wgt id='58'> +4.6903520e+02 </wgt>
<wgt id='59'> +5.4669342e+02 </wgt>
<wgt id='60'> +5.1134920e+02 </wgt>
<wgt id='61'> +4.5273289e+02 </wgt>
<wgt id='62'> +4.7459115e+02 </wgt>
<wgt id='63'> +5.2566445e+02 </wgt>
<wgt id='64'> +5.0463732e+02 </wgt>
<wgt id='65'> +4.8113607e+02 </wgt>
<wgt id='66'> +5.0629405e+02 </wgt>
<wgt id='67'> +5.0687908e+02 </wgt>
<wgt id='68'> +5.9157121e+02 </wgt>
<wgt id='69'> +5.2971518e+02 </wgt>
<wgt id='70'> +5.2785961e+02 </wgt>
<wgt id='71'> +4.8131494e+02 </wgt>
<wgt id='72'> +4.7512445e+02 </wgt>
<wgt id='73'> +4.6642368e+02 </wgt>
<wgt id='74'> +5.6332929e+02 </wgt>
<wgt id='75'> +5.3503628e+02 </wgt>
<wgt id='76'> +5.1583830e+02 </wgt>
<wgt id='77'> +4.8625198e+02 </wgt>
<wgt id='78'> +4.4745894e+02 </wgt>
<wgt id='79'> +5.3015662e+02 </wgt>
<wgt id='80'> +4.6081050e+02 </wgt>
<wgt id='81'> +5.1423802e+02 </wgt>
<wgt id='82'> +4.8955219e+02 </wgt>
<wgt id='83'> +4.9721532e+02 </wgt>
<wgt id='84'> +5.0159856e+02 </wgt>
<wgt id='85'> +4.7078118e+02 </wgt>
<wgt id='86'> +5.2143688e+02 </wgt>
<wgt id='87'> +5.0234477e+02 </wgt>
<wgt id='88'> +4.9151729e+02 </wgt>
<wgt id='89'> +4.5664056e+02 </wgt>
<wgt id='90'> +4.8664392e+02 </wgt>
<wgt id='91'> +4.6043737e+02 </wgt>
<wgt id='92'> +4.7368179e+02 </wgt>
<wgt id='93'> +5.0862700e+02 </wgt>
<wgt id='94'> +4.7078905e+02 </wgt>
<wgt id='95'> +5.2717814e+02 </wgt>
<wgt id='96'> +5.2571077e+02 </wgt>
<wgt id='97'> +4.6879403e+02 </wgt>
<wgt id='98'> +5.2786980e+02 </wgt>
<wgt id='99'> +4.4175822e+02 </wgt>
<wgt id='100'> +4.1059312e+02 </wgt>
<wgt id='101'> +5.7974689e+02 </wgt>
<wgt id='102'> +5.5605039e+02 </wgt>
<wgt id='103'> +4.9863085e+02 </wgt>
<wgt id='104'> +5.2882936e+02 </wgt>
<wgt id='105'> +5.1837889e+02 </wgt>
<wgt id='106'> +4.8537036e+02 </wgt>
<wgt id='107'> +4.8463422e+02 </wgt>
<wgt id='108'> +4.6801147e+02 </wgt>
<wgt id='109'> +4.9688448e+02 </wgt>
<wgt id='110'> +4.7714282e+02 </wgt>
<wgt id='111'> +4.9267918e+02 </wgt>
<wgt id='112'> +5.1485934e+02 </wgt>
<wgt id='113'> +5.1349517e+02 </wgt>
<wgt id='114'> +5.1722087e+02 </wgt>
<wgt id='115'> +4.6298617e+02 </wgt>
<wgt id='116'> +5.4432666e+02 </wgt>
<wgt id='117'> +4.9251749e+02 </wgt>
<wgt id='118'> +5.2355996e+02 </wgt>
<wgt id='119'> +5.3837048e+02 </wgt>
<wgt id='120'> +5.0258764e+02 </wgt>
<wgt id='121'> +5.0257547e+02 </wgt>
<wgt id='122'> +4.9703425e+02 </wgt>
<wgt id='123'> +4.8851238e+02 </wgt>
<wgt id='124'> +5.6587460e+02 </wgt>
<wgt id='125'> +6.0971985e+02 </wgt>
<wgt id='126'> +4.9999819e+02 </wgt>
<wgt id='127'> +4.9272870e+02 </wgt>
<wgt id='128'> +4.7726226e+02 </wgt>
<wgt id='129'> +5.2644077e+02 </wgt>
<wgt id='130'> +4.8367454e+02 </wgt>
<wgt id='131'> +4.7967851e+02 </wgt>
<wgt id='132'> +5.5276429e+02 </wgt>
<wgt id='133'> +5.4289464e+02 </wgt>
<wgt id='134'> +5.2272272e+02 </wgt>
<wgt id='135'> +4.9018231e+02 </wgt>
<wgt id='136'> +5.8150788e+02 </wgt>
<wgt id='137'> +5.1340620e+02 </wgt>
<wgt id='138'> +5.0386444e+02 </wgt>
<wgt id='139'> +5.2070874e+02 </wgt>
<wgt id='140'> +4.9658410e+02 </wgt>
<wgt id='141'> +5.5217406e+02 </wgt>
<wgt id='142'> +3.9127989e+02 </wgt>
<wgt id='143'> +5.2037668e+02 </wgt>
<wgt id='144'> +4.7026175e+02 </wgt>
<wgt id='145'> +4.7354126e+02 </wgt>
</rwgt>
</event>
<event>
 4      1 +5.0481800e+02 2.14081000e+02 7.54677100e-03 1.13837400e-01
       21 -1    0    0  501  502 +0.0000000000e+00 +0.0000000000e+00 +1.4587382636e+02 1.4587382636e+02 0.0000000000e+00 0.0000e+00 -1.0000e+00
       21 -1    0    0  502  503 -0.0000000000e+00 -0.0000000000e+00 -3.7165247005e+02 3.7165247005e+02 0.0000000000e+00 0.0000e+00 1.0000e+00
        6  1    1    2  501    0 -5.7466362345e+01 -1.1224647725e+02 -1.1132522226e+01 2.1437021133e+02 1.7300000000e+02 0.0000e+00 -1.0000e+00
       -6  1    1    2    0  503 +5.7466362345e+01 +1.1224647725e+02 -2.1464612147e+02 3.0315608507e+02 1.7300000000e+02 0.0000e+00 1.0000e+00
<mgrwt>
<rscale>  2 0.21408095E+03</rscale>
<asrwt>0</asrwt>
<pdfrwt beam="1">  1       21 0.22442128E-01 0.21408095E+03</pdfrwt>
<pdfrwt beam="2">  1       21 0.57177302E-01 0.21408095E+03</pdfrwt>
<totfact> 0.52864016E+04</totfact>
</mgrwt>
<rwgt>
<wgt id='1'> +6.5001554e+02 </wgt>
<wgt id='2'> +5.3323075e+02 </wgt>
<wgt id='3'> +5.0481800e+02 </wgt>
<wgt id='4'> +6.5001554e+02 </wgt>
<wgt id='5'> +4.9010489e+02 </wgt>
<wgt id='6'> +6.1594676e+02 </wgt>
<wgt id='7'> +4.9841292e+02 </wgt>
<wgt id='8'> +4.7156056e+02 </wgt>
<wgt id='9'> +6.1594675e+02 </wgt>
<wgt id='10'> +4.5785642e+02 </wgt>
<wgt id='11'> +5.7536815e+02 </wgt>
<wgt id='12'> +4.6563465e+02 </wgt>
<wgt id='13'> +4.4059011e+02 </wgt>
<wgt id='14'> +5.7536815e+02 </wgt>
<wgt id='15'> +4.2781483e+02 </wgt>
<wgt id='16'> +5.3274011e+02 </wgt>
<wgt id='17'> +4.4829529e+02 </wgt>
<wgt id='18'> +4.2601418e+02 </wgt>
<wgt id='19'> +5.3274011e+02 </wgt>
<wgt id='20'> +4.1426171e+02 </wgt>
<wgt id='21'> +4.1902340e+02 </wgt>
<wgt id='22'> +3.9794835e+02 </wgt>
<wgt id='23'> +5.0481800e+02 </wgt>
<wgt id='24'> +3.8700366e+02 </wgt>
<wgt id='25'> +4.7156057e+02 </wgt>
<wgt id='26'> +3.9146621e+02 </wgt>
<wgt id='27'> +3.7181249e+02 </wgt>
<wgt id='28'> +4.7156056e+02 </wgt>
<wgt id='29'> +3.6161096e+02 </wgt>
<wgt id='30'> +4.4957756e+02 </wgt>
<wgt id='31'> +3.8227090e+02 </wgt>
<wgt id='32'> +3.6428022e+02 </wgt>
<wgt id='33'> +4.4957756e+02 </wgt>
<wgt id='34'> +3.5475043e+02 </wgt>
<wgt id='35'> +4.2601419e+02 </wgt>
<wgt id='36'> +3.5731014e+02 </wgt>
<wgt id='37'> +3.4028142e+02 </wgt>
<wgt id='38'> +4.2601418e+02 </wgt>
<wgt id='39'> +3.3140817e+02 </wgt>
<wgt id='40'> +3.9794835e+02 </wgt>
<wgt id='41'> +3.3381154e+02 </wgt>
<wgt id='42'> +3.1793293e+02 </wgt>
<wgt id='43'> +3.9794835e+02 </wgt>
<wgt id='44'> +3.0966330e+02 </wgt>
<wgt id='45'> +5.0481800e+02 </wgt>
<wgt id='46'> +5.0744682e+02 </wgt>
<wgt id='47'> +5.2319753e+02 </wgt>
<wgt id='48'> +5.0747233e+02 </wgt>
<wgt id='49'> +5.0295094e+02 </wgt>
<wgt id='50'> +5.9355909e+02 </wgt>
<wgt id='51'> +4.9493757e+02 </wgt>
<wgt id='52'> +5.0265388e+02 </wgt>
<wgt id='53'> +5.0816862e+02 </wgt>
<wgt id='54'> +5.0809908e+02 </wgt>
<wgt id='55'> +4.5420405e+02 </wgt>
<wgt id='56'> +4.6732836e+02 </wgt>
<wgt id='57'> +4.9309361e+02 </wgt>
<wgt id='58'> +5.0545413e+02 </wgt>
<wgt id='59'> +5.0186621e+02 </wgt>
<wgt id='60'> +4.8798549e+02 </wgt>
<wgt id='61'> +4.8372335e+02 </wgt>
<wgt id='62'> +4.9827237e+02 </wgt>
<wgt id='63'> +5.0532672e+02 </wgt>
<wgt id='64'> +4.9803524e+02 </wgt>
<wgt id='65'> +5.9082162e+02 </wgt>
<wgt id='66'> +4.9358045e+02 </wgt>
<wgt id='67'> +5.0918501e+02 </wgt>
<wgt id='68'> +5.4388182e+02 </wgt>
<wgt id='69'> +4.9540122e+02 </wgt>
<wgt id='70'> +4.9638121e+02 </wgt>
<wgt id='71'> +5.1392592e+02 </wgt>
<wgt id='72'> +4.8787544e+02 </wgt>
<wgt id='73'> +4.9661881e+02 </wgt>
<wgt id='74'> +5.2268455e+02 </wgt>
<wgt id='75'> +5.1628680e+02 </wgt>
<wgt id='76'> +4.9079502e+02 </wgt>
<wgt id='77'> +4.8835641e+02 </wgt>
<wgt id='78'> +5.0109638e+02 </wgt>
<wgt id='79'> +4.8682606e+02 </wgt>
<wgt id='80'> +4.9901866e+02 </wgt>
<wgt id='81'> +4.9499789e+02 </wgt>
<wgt id='82'> +5.1522907e+02 </wgt>
<wgt id='83'> +5.1542621e+02 </wgt>
<wgt id='84'> +5.5355516e+02 </wgt>
<wgt id='85'> +5.2912922e+02 </wgt>
<wgt id='86'> +5.0300693e+02 </wgt>
<wgt id='87'> +5.0572593e+02 </wgt>
<wgt id='88'> +5.1319114e+02 </wgt>
<wgt id='89'> +5.1685192e+02 </wgt>
<wgt id='90'> +5.1160818e+02 </wgt>
<wgt id='91'> +5.3441178e+02 </wgt>
<wgt id='92'> +4.6207870e+02 </wgt>
<wgt id='93'> +4.9765874e+02 </wgt>
<wgt id='94'> +5.0005187e+02 </wgt>
<wgt id='95'> +4.8527527e+02 </wgt>
<wgt id='96'> +5.4643579e+02 </wgt>
<wgt id='97'> +5.1035247e+02 </wgt>
<wgt id='98'> +4.8341356e+02 </wgt>
<wgt id='99'> +4.8849521e+02 </wgt>
<wgt id='100'> +4.9542434e+02 </wgt>
<wgt id='101'> +5.3570708e+02 </wgt>
<wgt id='102'> +4.9579128e+02 </wgt>
<wgt id='103'> +5.4857271e+02 </wgt>
<wgt id='104'> +5.0521676e+02 </wgt>
<wgt id='105'> +5.2325462e+02 </wgt>
<wgt id='106'> +4.6203216e+02 </wgt>
<wgt id='107'> +4.9437912e+02 </wgt>
<wgt id='108'> +4.4977281e+02 </wgt>
<wgt id='109'> +4.7311546e+02 </wgt>
<wgt id='110'> +5.0472282e+02 </wgt>
<wgt id='111'> +4.9085960e+02 </wgt>
<wgt id='112'> +4.7992348e+02 </wgt>
<wgt id='113'> +4.6313641e+02 </wgt>
<wgt id='114'> +4.9998752e+02 </wgt>
<wgt id='115'> +5.0000846e+02 </wgt>
<wgt id='116'> +5.0824201e+02 </wgt>
<wgt id='117'> +5.0915744e+02 </wgt>
<wgt id='118'> +5.2050357e+02 </wgt>
<wgt id='119'> +4.8542154e+02 </wgt>
<wgt id='120'> +4.9948490e+02 </wgt>
<wgt id='121'> +4.9044561e+02 </wgt>
<wgt id='122'> +4.9821013e+02 </wgt>
<wgt id='123'> +5.1137157e+02 </wgt>
<wgt id='124'> +5.4310064e+02 </wgt>
<wgt id='125'> +5.4441603e+02 </wgt>
<wgt id='126'> +5.2445424e+02 </wgt>
<wgt id='127'> +5.2015842e+02 </wgt>
<wgt id='128'> +4.6650896e+02 </wgt>
<wgt id='129'> +5.7117535e+02 </wgt>
<wgt id='130'> +5.0805518e+02 </wgt>
<wgt id='131'> +5.3872468e+02 </wgt>
<wgt id='132'> +5.0439439e+02 </wgt>
<wgt id='133'> +5.0467891e+02 </wgt>
<wgt id='134'> +4.7721522e+02 </wgt>
<wgt id='135'> +5.1701843e+02 </wgt>
<wgt id='136'> +4.8925696e+02 </wgt>
<wgt id='137'> +4.7710140e+02 </wgt>
<wgt id='138'> +4.6263821e+02 </wgt>
<wgt id='139'> +5.1577864e+02 </wgt>
<wgt id='140'> +5.3358842e+02 </wgt>
<wgt id='141'> +5.0540842e+02 </wgt>
<wgt id='142'> +5.0269673e+02 </wgt>
<wgt id='143'> +5.0296837e+02 </wgt>
<wgt id='144'> +5.0242061e+02 </wgt>
<wgt id='145'> +5.0575205e+02 </wgt>
</rwgt>
</event>
<event>
 4      1 +5.0481800e+02 3.36018900e+02 7.54677100e-03 1.06850400e-01
       21 -1    0    0  503  502 +0.0000000000e+00 +0.0000000000e+00 +3.5473829158e+02 3.5473829158e+02 0.0000000000e+00 0.0000e+00 -1.0000e+00
       21 -1    0    0  501  503 -0.0000000000e+00 -0.0000000000e+00 -7.2674033917e+02 7.2674033917e+02 0.0000000000e+00 0.0000e+00 -1.0000e+00
        6  1    1    2  501    0 -9.4349433353e+01 -2.7217250430e+02 -5.9138762207e+02 6.8018233379e+02 1.7300000000e+02 0.0000e+00 -1.0000e+00
       -6  1    1    2    0  502 +9.4349433353e+01 +2.7217250430e+02 +2.1938557447e+02 4.0129629696e+02 1.7300000000e+02 0.0000e+00 -1.0000e+00
<mgrwt>
<rscale>  2 0.33601888E+03</rscale>
<asrwt>0</asrwt>
<pdfrwt beam="1">  1       21 0.54575122E-01 0.33601888E+03</pdfrwt>
<pdfrwt beam="2">  1       21 0.11180621E+00 0.33601888E+03</pdfrwt>
<totfact> 0.17997962E+03</totfact>
</mgrwt>
<rwgt>
<wgt id='1'> +6.8225542e+02 </wgt>
<wgt id='2'> +5.2329578e+02 </wgt>
<wgt id='3'> +5.0481800e+02 </wgt>
<wgt id='4'> +6.8225542e+02 </wgt>
<wgt id='5'> +4.2591840e+02 </wgt>
<wgt id='6'> +6.0225222e+02 </wgt>
<wgt id='7'> +4.6349015e+02 </wgt>
<wgt id='8'> +4.4742499e+02 </wgt>
<wgt id='9'> +6.0225222e+02 </wgt>
<wgt id='10'> +3.7871728e+02 </wgt>
<wgt id='11'> +5.3378187e+02 </wgt>
<wgt id='12'> +4.1274695e+02 </wgt>
<wgt id='13'> +3.9870062e+02 </wgt>
<wgt id='14'> +5.3378187e+02 </wgt>
<wgt id='15'> +3.3852954e+02 </wgt>
<wgt id='16'> +5.7187804e+02 </wgt>
<wgt id='17'> +4.4477815e+02 </wgt>
<wgt id='18'> +4.2976480e+02 </wgt>
<wgt id='19'> +5.7187804e+02 </wgt>
<wgt id='20'> +3.6527732e+02 </wgt>
<wgt id='21'> +3.9394602e+02 </wgt>
<wgt id='22'> +3.8090463e+02 </wgt>
<wgt id='23'> +5.0481800e+02 </wgt>
<wgt id='24'> +3.2479657e+02 </wgt>
<wgt id='25'> +4.4742499e+02 </wgt>
<wgt id='26'> +3.5081656e+02 </wgt>
<wgt id='27'> +3.3942428e+02 </wgt>
<wgt id='28'> +4.4742499e+02 </wgt>
<wgt id='29'> +2.9033065e+02 </wgt>
<wgt id='30'> +4.8685476e+02 </wgt>
<wgt id='31'> +3.8269406e+02 </wgt>
<wgt id='32'> +3.7028433e+02 </wgt>
<wgt id='33'> +4.8685476e+02 </wgt>
<wgt id='34'> +3.1672079e+02 </wgt>
<wgt id='35'> +4.2976480e+02 </wgt>
<wgt id='36'> +3.3895730e+02 </wgt>
<wgt id='37'> +3.2818652e+02 </wgt>
<wgt id='38'> +4.2976480e+02 </wgt>
<wgt id='39'> +2.8162117e+02 </wgt>
<wgt id='40'> +3.8090463e+02 </wgt>
<wgt id='41'> +3.0184804e+02 </wgt>
<wgt id='42'> +2.9244716e+02 </wgt>
<wgt id='43'> +3.8090463e+02 </wgt>
<wgt id='44'> +2.5173682e+02 </wgt>
<wgt id='45'> +5.0481800e+02 </wgt>
<wgt id='46'> +5.3025876e+02 </wgt>
<wgt id='47'> +5.3054782e+02 </wgt>
<wgt id='48'> +5.1681375e+02 </wgt>
<wgt id='49'> +4.9010392e+02 </wgt>
<wgt id='50'> +6.4652138e+02 </wgt>
<wgt id='51'> +4.8928817e+02 </wgt>
<wgt id='52'> +5.0148232e+02 </wgt>
<wgt id='53'> +4.9052369e+02 </wgt>
<wgt id='54'> +5.1764149e+02 </wgt>
<wgt id='55'> +4.8492090e+02 </wgt>
<wgt id='56'> +4.4830818e+02 </wgt>
<wgt id='57'> +5.1029640e+02 </wgt>
<wgt id='58'> +4.7442389e+02 </wgt>
<wgt id='59'> +5.4156284e+02 </wgt>
<wgt id='60'> +5.1406957e+02 </wgt>
<wgt id='61'> +4.1913952e+02 </wgt>
<wgt id='62'> +4.9292915e+02 </wgt>
<wgt id='63'> +5.1072309e+02 </wgt>
<wgt id='64'> +4.8454473e+02 </wgt>
<wgt id='65'> +5.5098650e+02 </wgt>
<wgt id='66'> +5.0151643e+02 </wgt>
<wgt id='67'> +5.0749218e+02 </wgt>
<wgt id='68'> +5.8277933e+02 </wgt>
<wgt id='69'> +5.3013360e+02 </wgt>
<wgt id='70'> +5.0141794e+02 </wgt>
<wgt id='71'> +5.0329303e+02 </wgt>
<wgt id='72'> +4.5611250e+02 </wgt>
<wgt id='73'> +4.7522827e+02 </wgt>
<wgt id='74'> +5.5674524e+02 </wgt>
<wgt id='75'> +5.2545849e+02 </wgt>
<wgt id='76'> +4.9738191e+02 </wgt>
<wgt id='77'> +4.9954662e+02 </wgt>
<wgt id='78'> +4.6095445e+02 </wgt>
<wgt id='79'> +5.1257362e+02 </wgt>
<wgt id='80'> +4.7871401e+02 </wgt>
<wgt id='81'> +4.9309930e+02 </wgt>
<wgt id='82'> +4.8782062e+02 </wgt>
<wgt id='83'> +5.1775988e+02 </wgt>
<wgt id='84'> +5.4531722e+02 </wgt>
<wgt id='85'> +5.0583300e+02 </wgt>
<wgt id='86'> +5.2017000e+02 </wgt>
<wgt id='87'> +5.1146674e+02 </wgt>
<wgt id='88'> +5.1083639e+02 </wgt>
<wgt id='89'> +5.0432230e+02 </wgt>
<wgt id='90'> +5.1215753e+02 </wgt>
<wgt id='91'> +5.0232783e+02 </wgt>
<wgt id='92'> +4.3569352e+02 </wgt>
<wgt id='93'> +5.1095633e+02 </wgt>
<wgt id='94'> +4.7542626e+02 </wgt>
<wgt id='95'> +4.9663624e+02 </wgt>
<wgt id='96'> +5.5899639e+02 </wgt>
<wgt id='97'> +4.8485284e+02 </wgt>
<wgt id='98'> +5.0450038e+02 </wgt>
<wgt id='99'> +4.6253218e+02 </wgt>
<wgt id='100'> +4.3440453e+02 </wgt>
<wgt id='101'> +5.9383422e+02 </wgt>
<wgt id='102'> +5.5287008e+02 </wgt>
<wgt id='103'> +5.4580999e+02 </wgt>
<wgt id='104'> +5.2419585e+02 </wgt>
<wgt id='105'> +5.1083429e+02 </wgt>
<wgt id='106'> +4.4128633e+02 </wgt>
<wgt id='107'> +4.5904628e+02 </wgt>
<wgt id='108'> +4.2755691e+02 </wgt>
<wgt id='109'> +4.6488235e+02 </wgt>
<wgt id='110'> +4.8852402e+02 </wgt>
<wgt id='111'> +4.8317251e+02 </wgt>
<wgt id='112'> +4.7327489e+02 </wgt>
<wgt id='113'> +4.6472778e+02 </wgt>
<wgt id='114'> +4.7778363e+02 </wgt>
<wgt id='115'> +4.5733987e+02 </wgt>
<wgt id='116'> +5.5034438e+02 </wgt>
<wgt id='117'> +4.9115822e+02 </wgt>
<wgt id='118'> +5.4770885e+02 </wgt>
<wgt id='119'> +4.9400708e+02 </wgt>
<wgt id='120'> +4.8422832e+02 </wgt>
<wgt id='121'> +4.8813191e+02 </wgt>
<wgt id='122'> +4.9535011e+02 </wgt>
<wgt id='123'> +5.1083861e+02 </wgt>
<wgt id='124'> +5.8692631e+02 </wgt>
<wgt id='125'> +5.9859478e+02 </wgt>
<wgt id='126'> +5.2557032e+02 </wgt>
<wgt id='127'> +5.1950795e+02 </wgt>
<wgt id='128'> +4.5176485e+02 </wgt>
<wgt id='129'> +5.6609013e+02 </wgt>
<wgt id='130'> +5.0388986e+02 </wgt>
<wgt id='131'> +5.1544062e+02 </wgt>
<wgt id='132'> +5.4713844e+02 </wgt>
<wgt id='133'> +5.3961486e+02 </wgt>
<wgt id='134'> +4.9895495e+02 </wgt>
<wgt id='135'> +5.0667063e+02 </wgt>
<wgt id='136'> +5.4396450e+02 </wgt>
<wgt id='137'> +4.9717251e+02 </wgt>
<wgt id='138'> +5.0113614e+02 </wgt>
<wgt id='139'> +5.2755232e+02 </wgt>
<wgt id='140'> +5.0722097e+02 </wgt>
<wgt id='141'> +5.2835109e+02 </wgt>
<wgt id='142'> +4.4100487e+02 </wgt>
<wgt id='143'> +5.2211146e+02 </wgt>
<wgt id='144'> +4.7687731e+02 </wgt>
<wgt id='145'> +4.9551261e+02 </wgt>
</rwgt>
</event>
<event>
 4      1 +5.0481800e+02 2.00343700e+02 7.54677100e-03 1.14944900e-01
       21 -1    0    0  501  502 +0.0000000000e+00 +0.0000000000e+00 +4.3778891465e+02 4.3778891465e+02 0.0000000000e+00 0.0000e+00 1.0000e+00
       21 -1    0    0  502  503 -0.0000000000e+00 -0.0000000000e+00 -1.8565370257e+02 1.8565370257e+02 0.0000000000e+00 0.0000e+00 1.0000e+00
        6  1    1    2  501    0 -8.5907196684e+01 -5.3184111147e+01 +3.4784230681e+02 4.0141233978e+02 1.7300000000e+02 0.0000e+00 1.0000e+00
       -6  1    1    2    0  503 +8.5907196684e+01 +5.3184111147e+01 -9.5707094727e+01 2.2203027744e+02 1.7300000000e+02 0.0000e+00 1.0000e+00
<mgrwt>
<rscale>  2 0.20034369E+03</rscale>
<asrwt>0</asrwt>
<pdfrwt beam="1">  1       21 0.67352140E-01 0.20034369E+03</pdfrwt>
<pdfrwt beam="2">  1       21 0.28562108E-01 0.20034369E+03</pdfrwt>
<totfact> 0.23537293E+04</totfact>
</mgrwt>
<rwgt>
<wgt id='1'> +6.6096358e+02 </wgt>
<wgt id='2'> +5.8454602e+02 </wgt>
<wgt id='3'> +5.0481800e+02 </wgt>
<wgt id='4'> +6.6096358e+02 </wgt>
<wgt id='5'> +4.4305372e+02 </wgt>
<wgt id='6'> +6.1823273e+02 </wgt>
<wgt id='7'> +5.4208952e+02 </wgt>
<wgt id='8'> +4.6530918e+02 </wgt>
<wgt id='9'> +6.1823272e+02 </wgt>
<wgt id='10'> +4.0868187e+02 </wgt>
<wgt id='11'> +5.6984768e+02 </wgt>
<wgt id='12'> +4.9999322e+02 </wgt>
<wgt id='13'> +4.2953123e+02 </wgt>
<wgt id='14'> +5.6984767e+02 </wgt>
<wgt id='15'> +3.7759941e+02 </wgt>
<wgt id='16'> +5.3970988e+02 </wgt>
<wgt id='17'> +4.8526282e+02 </wgt>
<wgt id='18'> +4.2543162e+02 </wgt>
<wgt id='19'> +5.3970988e+02 </wgt>
<wgt id='20'> +3.7600495e+02 </wgt>
<wgt id='21'> +4.5001741e+02 </wgt>
<wgt id='22'> +3.9213585e+02 </wgt>
<wgt id='23'> +5.0481800e+02 </wgt>
<wgt id='24'> +3.4683471e+02 </wgt>
<wgt id='25'> +4.6530918e+02 </wgt>
<wgt id='26'> +4.1507104e+02 </wgt>
<wgt id='27'> +3.6198426e+02 </wgt>
<wgt id='28'> +4.6530918e+02 </wgt>
<wgt id='29'> +3.2045606e+02 </wgt>
<wgt id='30'> +4.5483650e+02 </wgt>
<wgt id='31'> +4.1148066e+02 </wgt>
<wgt id='32'> +3.6335074e+02 </wgt>
<wgt id='33'> +4.5483649e+02 </wgt>
<wgt id='34'> +3.2309801e+02 </wgt>
<wgt id='35'> +4.2543162e+02 </wgt>
<wgt id='36'> +3.8159417e+02 </wgt>
<wgt id='37'> +3.3491364e+02 </wgt>
<wgt id='38'> +4.2543162e+02 </wgt>
<wgt id='39'> +2.9803226e+02 </wgt>
<wgt id='40'> +3.9213586e+02 </wgt>
<wgt id='41'> +3.5196124e+02 </wgt>
<wgt id='42'> +3.0916190e+02 </wgt>
<wgt id='43'> +3.9213585e+02 </wgt>
<wgt id='44'> +2.7536529e+02 </wgt>
<wgt id='45'> +5.0481800e+02 </wgt>
<wgt id='46'> +5.1200080e+02 </wgt>
<wgt id='47'> +5.2582376e+02 </wgt>
<wgt id='48'> +5.1021457e+02 </wgt>
<wgt id='49'> +5.0209684e+02 </wgt>
<wgt id='50'> +6.0819361e+02 </wgt>
<wgt id='51'> +4.9446513e+02 </wgt>
<wgt id='52'> +5.0367588e+02 </wgt>
<wgt id='53'> +5.0466757e+02 </wgt>
<wgt id='54'> +5.0880386e+02 </wgt>
<wgt id='55'> +4.5379132e+02 </wgt>
<wgt id='56'> +4.6141275e+02 </wgt>
<wgt id='57'> +4.9382486e+02 </wgt>
<wgt id='58'> +5.0081266e+02 </wgt>
<wgt id='59'> +5.0756758e+02 </wgt>
<wgt id='60'> +4.9217975e+02 </wgt>
<wgt id='61'> +4.7041570e+02 </wgt>
<wgt id='62'> +4.9858730e+02 </wgt>
<wgt id='63'> +5.0542104e+02 </wgt>
<wgt id='64'> +4.9432346e+02 </wgt>
<wgt id='65'> +5.9099666e+02 </wgt>
<wgt id='66'> +4.9409602e+02 </wgt>
<wgt id='67'> +5.0904229e+02 </wgt>
<wgt id='68'> +5.5075894e+02 </wgt>
<wgt id='69'> +5.0086781e+02 </wgt>
<wgt id='70'> +4.9535723e+02 </wgt>
<wgt id='71'> +5.1349803e+02 </wgt>
<wgt id='72'> +4.8020917e+02 </wgt>
<wgt id='73'> +4.9379984e+02 </wgt>
<wgt id='74'> +5.2843790e+02 </wgt>
<wgt id='75'> +5.1781440e+02 </wgt>
<wgt id='76'> +4.8992191e+02 </wgt>
<wgt id='77'> +4.9071067e+02 </wgt>
<wgt id='78'> +4.9521444e+02 </wgt>
<wgt id='79'> +4.8953016e+02 </wgt>
<wgt id='80'> +4.9636713e+02 </wgt>
<wgt id='81'> +4.9306070e+02 </wgt>
<wgt id='82'> +5.1157436e+02 </wgt>
<wgt id='83'> +5.1758868e+02 </wgt>
<wgt id='84'> +5.5633586e+02 </wgt>
<wgt id='85'> +5.2880738e+02 </wgt>
<wgt id='86'> +5.0579820e+02 </wgt>
<wgt id='87'> +5.0740600e+02 </wgt>
<wgt id='88'> +5.1405746e+02 </wgt>
<wgt id='89'> +5.1863367e+02 </wgt>
<wgt id='90'> +5.1338859e+02 </wgt>
<wgt id='91'> +5.3255436e+02 </wgt>
<wgt id='92'> +4.5349765e+02 </wgt>
<wgt id='93'> +5.0002849e+02 </wgt>
<wgt id='94'> +4.9623321e+02 </wgt>
<wgt id='95'> +4.8419136e+02 </wgt>
<wgt id='96'> +5.5244946e+02 </wgt>
<wgt id='97'> +5.0724031e+02 </wgt>
<wgt id='98'> +4.8438849e+02 </wgt>
<wgt id='99'> +4.8550949e+02 </wgt>
<wgt id='100'> +4.8629556e+02 </wgt>
<wgt id='101'> +5.4647879e+02 </wgt>
<wgt id='102'> +5.0422146e+02 </wgt>
<wgt id='103'> +5.5285439e+02 </wgt>
<wgt id='104'> +5.0782703e+02 </wgt>
<wgt id='105'> +5.2085658e+02 </wgt>
<wgt id='106'> +4.5441333e+02 </wgt>
<wgt id='107'> +4.8651911e+02 </wgt>
<wgt id='108'> +4.4168317e+02 </wgt>
<wgt id='109'> +4.6867260e+02 </wgt>
<wgt id='110'> +5.0291996e+02 </wgt>
<wgt id='111'> +4.8825613e+02 </wgt>
<wgt id='112'> +4.7552303e+02 </wgt>
<wgt id='113'> +4.5931991e+02 </wgt>
<wgt id='114'> +4.9339129e+02 </wgt>
<wgt id='115'> +4.9184928e+02 </wgt>
<wgt id='116'> +5.1550101e+02 </wgt>
<wgt id='117'> +5.0628209e+02 </wgt>
<wgt id='118'> +5.2701189e+02 </wgt>
<wgt id='119'> +4.8357473e+02 </wgt>
<wgt id='120'> +4.9542850e+02 </wgt>
<wgt id='121'> +4.8855611e+02 </wgt>
<wgt id='122'> +4.9746368e+02 </wgt>
<wgt id='123'> +5.1288234e+02 </wgt>
<wgt id='124'> +5.5238559e+02 </wgt>
<wgt id='125'> +5.5339111e+02 </wgt>
<wgt id='126'> +5.2714658e+02 </wgt>
<wgt id='127'> +5.2248334e+02 </wgt>
<wgt id='128'> +4.6137549e+02 </wgt>
<wgt id='129'> +5.7478753e+02 </wgt>
<wgt id='130'> +5.0842243e+02 </wgt>
<wgt id='131'> +5.3821298e+02 </wgt>
<wgt id='132'> +5.1047225e+02 </wgt>
<wgt id='133'> +5.1016447e+02 </wgt>
<wgt id='134'> +4.7824583e+02 </wgt>
<wgt id='135'> +5.1693574e+02 </wgt>
<wgt id='136'> +4.9476916e+02 </wgt>
<wgt id='137'> +4.7857552e+02 </wgt>
<wgt id='138'> +4.6742307e+02 </wgt>
<wgt id='139'> +5.1872267e+02 </wgt>
<wgt id='140'> +5.3089395e+02 </wgt>
<wgt id='141'> +5.0747560e+02 </wgt>
<wgt id='142'> +4.9435685e+02 </wgt>
<wgt id='143'> +5.0588122e+02 </wgt>
<wgt id='144'> +4.9848248e+02 </wgt>
<wgt id='145'> +5.0547306e+02 </wgt>
</rwgt>
</event>
<event>
 4      1 +5.0481800e+02 1.77997900e+02 7.54677100e-03 1.16975500e-01
       21 -1    0    0  503  502 +0.0000000000e+00 +0.0000000000e+00 +4.5467960017e+02 4.5467960017e+02 0.0000000000e+00 0.0000e+00 -1.0000e+00
       21 -1    0    0  501  503 -0.0000000000e+00 -0.0000000000e+00 -9.5886267927e+01 9.5886267927e+01 0.0000000000e+00 0.0000e+00 -1.0000e+00
        6  1    1    2  501    0 -4.1284693374e+01 +7.0597111459e+00 +3.5489650969e+01 1.8150146213e+02 1.7300000000e+02 0.0000e+00 -1.0000e+00
       -6  1    1    2    0  502 +4.1284693374e+01 -7.0597111459e+00 +3.2330368128e+02 3.6906440597e+02 1.7300000000e+02 0.0000e+00 -1.0000e+00
<mgrwt>
<rscale>  2 0.17799794E+03</rscale>
<asrwt>0</asrwt>
<pdfrwt beam="1">  1       21 0.69950706E-01 0.17799794E+03</pdfrwt>
<pdfrwt beam="2">  1       21 0.14751734E-01 0.17799794E+03</pdfrwt>
<totfact> 0.75514304E+04</totfact>
</mgrwt>
<rwgt>
<wgt id='1'> +6.4920049e+02 </wgt>
<wgt id='2'> +6.3876334e+02 </wgt>
<wgt id='3'> +5.0481800e+02 </wgt>
<wgt id='4'> +6.4920050e+02 </wgt>
<wgt id='5'> +4.7743669e+02 </wgt>
<wgt id='6'> +6.2177268e+02 </wgt>
<wgt id='7'> +6.1112769e+02 </wgt>
<wgt id='8'> +4.7428833e+02 </wgt>
<wgt id='9'> +6.2177268e+02 </wgt>
<wgt id='10'> +4.4805502e+02 </wgt>
<wgt id='11'> +5.8416998e+02 </wgt>
<wgt id='12'> +5.7388266e+02 </wgt>
<wgt id='13'> +4.4495424e+02 </wgt>
<wgt id='14'> +5.8416998e+02 </wgt>
<wgt id='15'> +4.2033101e+02 </wgt>
<wgt id='16'> +5.2708668e+02 </wgt>
<wgt id='17'> +5.1967159e+02 </wgt>
<wgt id='18'> +4.2399733e+02 </wgt>
<wgt id='19'> +5.2708668e+02 </wgt>
<wgt id='20'> +4.0271215e+02 </wgt>
<wgt id='21'> +4.9718836e+02 </wgt>
<wgt id='22'> +3.9835541e+02 </wgt>
<wgt id='23'> +5.0481800e+02 </wgt>
<wgt id='24'> +3.7792906e+02 </wgt>
<wgt id='25'> +4.7428832e+02 </wgt>
<wgt id='26'> +4.6688733e+02 </wgt>
<wgt id='27'> +3.7371767e+02 </wgt>
<wgt id='28'> +4.7428833e+02 </wgt>
<wgt id='29'> +3.5454419e+02 </wgt>
<wgt id='30'> +4.4270082e+02 </wgt>
<wgt id='31'> +4.3706287e+02 </wgt>
<wgt id='32'> +3.6134859e+02 </wgt>
<wgt id='33'> +4.4270082e+02 </wgt>
<wgt id='34'> +3.4420238e+02 </wgt>
<wgt id='35'> +4.2399732e+02 </wgt>
<wgt id='36'> +4.1815365e+02 </wgt>
<wgt id='37'> +3.3949546e+02 </wgt>
<wgt id='38'> +4.2399733e+02 </wgt>
<wgt id='39'> +3.2302001e+02 </wgt>
<wgt id='40'> +3.9835541e+02 </wgt>
<wgt id='41'> +3.9266938e+02 </wgt>
<wgt id='42'> +3.1849813e+02 </wgt>
<wgt id='43'> +3.9835541e+02 </wgt>
<wgt id='44'> +3.0303271e+02 </wgt>
<wgt id='45'> +5.0481800e+02 </wgt>
<wgt id='46'> +5.0799067e+02 </wgt>
<wgt id='47'> +5.2069158e+02 </wgt>
<wgt id='48'> +5.0671621e+02 </wgt>
<wgt id='49'> +5.0191101e+02 </wgt>
<wgt id='50'> +5.8877378e+02 </wgt>
<wgt id='51'> +4.9459673e+02 </wgt>
<wgt id='52'> +5.0353933e+02 </wgt>
<wgt id='53'> +5.0603334e+02 </wgt>
<wgt id='54'> +5.0887675e+02 </wgt>
<wgt id='55'> +4.6148850e+02 </wgt>
<wgt id='56'> +4.6754035e+02 </wgt>
<wgt id='57'> +4.9713512e+02 </wgt>
<wgt id='58'> +5.0506462e+02 </wgt>
<wgt id='59'> +5.0671706e+02 </wgt>
<wgt id='60'> +4.9224482e+02 </wgt>
<wgt id='61'> +4.7422119e+02 </wgt>
<wgt id='62'> +4.9747102e+02 </wgt>
<wgt id='63'> +5.0548400e+02 </wgt>
<wgt id='64'> +4.9842019e+02 </wgt>
<wgt id='65'> +5.8072079e+02 </wgt>
<wgt id='66'> +4.9369960e+02 </wgt>
<wgt id='67'> +5.0880640e+02 </wgt>
<wgt id='68'> +5.4490939e+02 </wgt>
<wgt id='69'> +4.9454717e+02 </wgt>
<wgt id='70'> +4.9716860e+02 </wgt>
<wgt id='71'> +5.1335441e+02 </wgt>
<wgt id='72'> +4.9175078e+02 </wgt>
<wgt id='73'> +4.9629763e+02 </wgt>
<wgt id='74'> +5.2336410e+02 </wgt>
<wgt id='75'> +5.1516449e+02 </wgt>
<wgt id='76'> +4.9359469e+02 </wgt>
<wgt id='77'> +4.8991736e+02 </wgt>
<wgt id='78'> +4.9812740e+02 </wgt>
<wgt id='79'> +4.8933502e+02 </wgt>
<wgt id='80'> +4.9783476e+02 </wgt>
<wgt id='81'> +4.9584455e+02 </wgt>
<wgt id='82'> +5.1119136e+02 </wgt>
<wgt id='83'> +5.1259992e+02 </wgt>
<wgt id='84'> +5.4834737e+02 </wgt>
<wgt id='85'> +5.2491708e+02 </wgt>
<wgt id='86'> +5.0265421e+02 </wgt>
<wgt id='87'> +5.0604849e+02 </wgt>
<wgt id='88'> +5.1011045e+02 </wgt>
<wgt id='89'> +5.1555372e+02 </wgt>
<wgt id='90'> +5.1274310e+02 </wgt>
<wgt id='91'> +5.3025643e+02 </wgt>
<wgt id='92'> +4.6638689e+02 </wgt>
<wgt id='93'> +4.9810524e+02 </wgt>
<wgt id='94'> +4.9951462e+02 </wgt>
<wgt id='95'> +4.8993374e+02 </wgt>
<wgt id='96'> +5.4151256e+02 </wgt>
<wgt id='97'> +5.0855788e+02 </wgt>
<wgt id='98'> +4.8560500e+02 </wgt>
<wgt id='99'> +4.8761173e+02 </wgt>
<wgt id='100'> +4.9295707e+02 </wgt>
<wgt id='101'> +5.3769792e+02 </wgt>
<wgt id='102'> +4.9886465e+02 </wgt>
<wgt id='103'> +5.4589834e+02 </wgt>
<wgt id='104'> +5.0452046e+02 </wgt>
<wgt id='105'> +5.2406567e+02 </wgt>
<wgt id='106'> +4.6520890e+02 </wgt>
<wgt id='107'> +4.9398244e+02 </wgt>
<wgt id='108'> +4.5166805e+02 </wgt>
<wgt id='109'> +4.7580051e+02 </wgt>
<wgt id='110'> +5.0491152e+02 </wgt>
<wgt id='111'> +4.9203612e+02 </wgt>
<wgt id='112'> +4.8044790e+02 </wgt>
<wgt id='113'> +4.6608204e+02 </wgt>
<wgt id='114'> +5.0056071e+02 </wgt>
<wgt id='115'> +4.9537053e+02 </wgt>
<wgt id='116'> +5.0883565e+02 </wgt>
<wgt id='117'> +5.0675391e+02 </wgt>
<wgt id='118'> +5.2041258e+02 </wgt>
<wgt id='119'> +4.8835947e+02 </wgt>
<wgt id='120'> +4.9737221e+02 </wgt>
<wgt id='121'> +4.9336171e+02 </wgt>
<wgt id='122'> +4.9918768e+02 </wgt>
<wgt id='123'> +5.0925412e+02 </wgt>
<wgt id='124'> +5.4373628e+02 </wgt>
<wgt id='125'> +5.4590773e+02 </wgt>
<wgt id='126'> +5.2176634e+02 </wgt>
<wgt id='127'> +5.1877397e+02 </wgt>
<wgt id='128'> +4.6519606e+02 </wgt>
<wgt id='129'> +5.6854621e+02 </wgt>
<wgt id='130'> +5.0392618e+02 </wgt>
<wgt id='131'> +5.3535146e+02 </wgt>
<wgt id='132'> +5.1062554e+02 </wgt>
<wgt id='133'> +5.0643245e+02 </wgt>
<wgt id='134'> +4.8113728e+02 </wgt>
<wgt id='135'> +5.1585753e+02 </wgt>
<wgt id='136'> +4.9693500e+02 </wgt>
<wgt id='137'> +4.7769123e+02 </wgt>
<wgt id='138'> +4.6261659e+02 </wgt>
<wgt id='139'> +5.1622540e+02 </wgt>
<wgt id='140'> +5.3053903e+02 </wgt>
<wgt id='141'> +5.0596350e+02 </wgt>
<wgt id='142'> +4.9764246e+02 </wgt>
<wgt id='143'> +5.0613574e+02 </wgt>
<wgt id='144'> +5.0260184e+02 </wgt>
<wgt id='145'> +5.0498003e+02 </wgt>
</rwgt>
</event>
<event>
 4      1 +5.0481800e+02 2.16306800e+02 7.54677100e-03 1.13666700e-01
       21 -1    0    0  503  502 +0.0000000000e+00 +0.0000000000e+00 +8.1623539041e+02 8.1623539041e+02 0.0000000000e+00 0.0000e+00 1.0000e+00
       21 -1    0    0  501  503 -0.0000000000e+00 -0.0000000000e+00 -2.6041616455e+02 2.6041616455e+02 0.0000000000e+00 0.0000e+00 -1.0000e+00
        6  1    1    2  501    0 +1.2819282376e+02 -2.0645027574e+01 -1.9749067696e+02 2.9290132248e+02 1.7300000000e+02 0.0000e+00 -1.0000e+00
       -6  1    1    2    0  502 -1.2819282376e+02 +2.0645027574e+01 +7.5330990282e+02 7.8375023248e+02 1.7300000000e+02 0.0000e+00 1.0000e+00
<mgrwt>
<rscale>  2 0.21630677E+03</rscale>
<asrwt>0</asrwt>
<pdfrwt beam="1">  1       21 0.12557467E+00 0.21630677E+03</pdfrwt>
<pdfrwt beam="2">  1       21 0.40064026E-01 0.21630677E+03</pdfrwt>
<totfact> 0.27744090E+03</totfact>
</mgrwt>
<rwgt>
<wgt id='1'> +6.8863849e+02 </wgt>
<wgt id='2'> +5.9845051e+02 </wgt>
<wgt id='3'> +5.0481800e+02 </wgt>
<wgt id='4'> +6.8863849e+02 </wgt>
<wgt id='5'> +3.6828990e+02 </wgt>
<wgt id='6'> +6.1558662e+02 </wgt>
<wgt id='7'> +5.3158769e+02 </wgt>
<wgt id='8'> +4.4766747e+02 </wgt>
<wgt id='9'> +6.1558663e+02 </wgt>
<wgt id='10'> +3.2840617e+02 </wgt>
<wgt id='11'> +5.4589595e+02 </wgt>
<wgt id='12'> +4.7249161e+02 </wgt>
<wgt id='13'> +3.9900570e+02 </wgt>
<wgt id='14'> +5.4589595e+02 </wgt>
<wgt id='15'> +2.9428893e+02 </wgt>
<wgt id='16'> +5.6472492e+02 </wgt>
<wgt id='17'> +4.9868713e+02 </wgt>
<wgt id='18'> +4.2609714e+02 </wgt>
<wgt id='19'> +5.6472492e+02 </wgt>
<wgt id='20'> +3.1532798e+02 </wgt>
<wgt id='21'> +4.4297053e+02 </wgt>
<wgt id='22'> +3.7785860e+02 </wgt>
<wgt id='23'> +5.0481800e+02 </wgt>
<wgt id='24'> +2.8117972e+02 </wgt>
<wgt id='25'> +4.4766746e+02 </wgt>
<wgt id='26'> +3.9372593e+02 </wgt>
<wgt id='27'> +3.3678511e+02 </wgt>
<wgt id='28'> +4.4766747e+02 </wgt>
<wgt id='29'> +2.5196871e+02 </wgt>
<wgt id='30'> +4.7666222e+02 </wgt>
<wgt id='31'> +4.2347260e+02 </wgt>
<wgt id='32'> +3.6441744e+02 </wgt>
<wgt id='33'> +4.7666222e+02 </wgt>
<wgt id='34'> +2.7302108e+02 </wgt>
<wgt id='35'> +4.2609714e+02 </wgt>
<wgt id='36'> +3.7615946e+02 </wgt>
<wgt id='37'> +3.2316167e+02 </wgt>
<wgt id='38'> +4.2609714e+02 </wgt>
<wgt id='39'> +2.4345442e+02 </wgt>
<wgt id='40'> +3.7785860e+02 </wgt>
<wgt id='41'> +3.3434218e+02 </wgt>
<wgt id='42'> +2.8803377e+02 </wgt>
<wgt id='43'> +3.7785860e+02 </wgt>
<wgt id='44'> +2.1816259e+02 </wgt>
<wgt id='45'> +5.0481800e+02 </wgt>
<wgt id='46'> +5.2689381e+02 </wgt>
<wgt id='47'> +5.2840224e+02 </wgt>
<wgt id='48'> +5.1407663e+02 </wgt>
<wgt id='49'> +4.8864839e+02 </wgt>
<wgt id='50'> +6.4070435e+02 </wgt>
<wgt id='51'> +4.8736736e+02 </wgt>
<wgt id='52'> +4.9966721e+02 </wgt>
<wgt id='53'> +4.9373388e+02 </wgt>
<wgt id='54'> +5.1972463e+02 </wgt>
<wgt id='55'> +4.8664093e+02 </wgt>
<wgt id='56'> +4.5127939e+02 </wgt>
<wgt id='57'> +5.1166071e+02 </wgt>
<wgt id='58'> +4.7584070e+02 </wgt>
<wgt id='59'> +5.3847883e+02 </wgt>
<wgt id='60'> +5.0922350e+02 </wgt>
<wgt id='61'> +4.2632348e+02 </wgt>
<wgt id='62'> +4.9036581e+02 </wgt>
<wgt id='63'> +5.1241797e+02 </wgt>
<wgt id='64'> +4.8921425e+02 </wgt>
<wgt id='65'> +5.5137133e+02 </wgt>
<wgt id='66'> +4.9998832e+02 </wgt>
<wgt id='67'> +5.0748201e+02 </wgt>
<wgt id='68'> +5.8180517e+02 </wgt>
<wgt id='69'> +5.2602497e+02 </wgt>
<wgt id='70'> +5.0258833e+02 </wgt>
<wgt id='71'> +5.0149212e+02 </wgt>
<wgt id='72'> +4.6098332e+02 </wgt>
<wgt id='73'> +4.7479978e+02 </wgt>
<wgt id='74'> +5.5519605e+02 </wgt>
<wgt id='75'> +5.2610718e+02 </wgt>
<wgt id='76'> +4.9871655e+02 </wgt>
<wgt id='77'> +4.9567367e+02 </wgt>
<wgt id='78'> +4.6228900e+02 </wgt>
<wgt id='79'> +5.1043369e+02 </wgt>
<wgt id='80'> +4.7742871e+02 </wgt>
<wgt id='81'> +4.9482262e+02 </wgt>
<wgt id='82'> +4.8923401e+02 </wgt>
<wgt id='83'> +5.1539043e+02 </wgt>
<wgt id='84'> +5.4343646e+02 </wgt>
<wgt id='85'> +5.0471346e+02 </wgt>
<wgt id='86'> +5.1834791e+02 </wgt>
<wgt id='87'> +5.1001832e+02 </wgt>
<wgt id='88'> +5.0848889e+02 </wgt>
<wgt id='89'> +5.0006207e+02 </wgt>
<wgt id='90'> +5.0911549e+02 </wgt>
<wgt id='91'> +5.0053517e+02 </wgt>
<wgt id='92'> +4.4005123e+02 </wgt>
<wgt id='93'> +5.0862607e+02 </wgt>
<wgt id='94'> +4.7622715e+02 </wgt>
<wgt id='95'> +4.9974161e+02 </wgt>
<wgt id='96'> +5.5565801e+02 </wgt>
<wgt id='97'> +4.8522725e+02 </wgt>
<wgt id='98'> +5.0352759e+02 </wgt>
<wgt id='99'> +4.6062009e+02 </wgt>
<wgt id='100'> +4.3462717e+02 </wgt>
<wgt id='101'> +5.8858671e+02 </wgt>
<wgt id='102'> +5.4746485e+02 </wgt>
<wgt id='103'> +5.4268652e+02 </wgt>
<wgt id='104'> +5.2297967e+02 </wgt>
<wgt id='105'> +5.1441635e+02 </wgt>
<wgt id='106'> +4.4622660e+02 </wgt>
<wgt id='107'> +4.6427813e+02 </wgt>
<wgt id='108'> +4.3153913e+02 </wgt>
<wgt id='109'> +4.6861938e+02 </wgt>
<wgt id='110'> +4.8860465e+02 </wgt>
<wgt id='111'> +4.8494736e+02 </wgt>
<wgt id='112'> +4.7894080e+02 </wgt>
<wgt id='113'> +4.6784357e+02 </wgt>
<wgt id='114'> +4.8655026e+02 </wgt>
<wgt id='115'> +4.6236878e+02 </wgt>
<wgt id='116'> +5.4591943e+02 </wgt>
<wgt id='117'> +4.9354063e+02 </wgt>
<wgt id='118'> +5.4338673e+02 </wgt>
<wgt id='119'> +4.9835688e+02 </wgt>
<wgt id='120'> +4.9096511e+02 </wgt>
<wgt id='121'> +4.9058756e+02 </wgt>
<wgt id='122'> +4.9579916e+02 </wgt>
<wgt id='123'> +5.0880706e+02 </wgt>
<wgt id='124'> +5.8330957e+02 </wgt>
<wgt id='125'> +5.9778693e+02 </wgt>
<wgt id='126'> +5.2297307e+02 </wgt>
<wgt id='127'> +5.1705297e+02 </wgt>
<wgt id='128'> +4.5417966e+02 </wgt>
<wgt id='129'> +5.6568879e+02 </wgt>
<wgt id='130'> +5.0068949e+02 </wgt>
<wgt id='131'> +5.1455522e+02 </wgt>
<wgt id='132'> +5.4404105e+02 </wgt>
<wgt id='133'> +5.3711495e+02 </wgt>
<wgt id='134'> +4.9766223e+02 </wgt>
<wgt id='135'> +5.0606029e+02 </wgt>
<wgt id='136'> +5.4355111e+02 </wgt>
<wgt id='137'> +4.9481702e+02 </wgt>
<wgt id='138'> +4.9491310e+02 </wgt>
<wgt id='139'> +5.2620435e+02 </wgt>
<wgt id='140'> +5.1000090e+02 </wgt>
<wgt id='141'> +5.2926394e+02 </wgt>
<wgt id='142'> +4.3889571e+02 </wgt>
<wgt id='143'> +5.1945662e+02 </wgt>
<wgt id='144'> +4.7758292e+02 </wgt>
<wgt id='145'> +4.9266634e+02 </wgt>
</rwgt>
</event>
<event>
 4      1 +5.0481800e+02 1.78348700e+02 7.54677100e-03 1.16941100e-01
       21 -1    0    0  503  502 +0.0000000000e+00 +0.0000000000e+00 +1.4818106939e+03 1.4818106939e+03 0.0000000000e+00 0.0000e+00 -1.0000e+00
       21 -1    0    0  501  503 -0.0000000000e+00 -0.0000000000e+00 -2.9489778461e+01 2.9489778461e+01 0.0000000000e+00 0.0000e+00 -1.0000e+00
        6  1    1    2  501    0 +1.9019900778e+01 +3.8955305189e+01 +3.3199408453e+02 3.7686648112e+02 1.7300000000e+02 0.0000e+00 -1.0000e+00
       -6  1    1    2    0  502 -1.9019900778e+01 -3.8955305189e+01 +1.1203268309e+03 1.1344339912e+03 1.7300000000e+02 0.0000e+00 -1.0000e+00
<mgrwt>
<rscale>  2 0.17834874E+03</rscale>
<asrwt>0</asrwt>
<pdfrwt beam="1">  1       21 0.22797082E+00 0.17834874E+03</pdfrwt>
<pdfrwt beam="2">  1       21 0.45368901E-02 0.17834874E+03</pdfrwt>
<totfact> 0.28848265E+04</totfact>
</mgrwt>
<rwgt>
<wgt id='1'> +6.8183389e+02 </wgt>
<wgt id='2'> +9.2294083e+02 </wgt>
<wgt id='3'> +5.0481800e+02 </wgt>
<wgt id='4'> +6.8183389e+02 </wgt>
<wgt id='5'> +4.7253388e+02 </wgt>
<wgt id='6'> +6.2171331e+02 </wgt>
<wgt id='7'> +8.4546456e+02 </wgt>
<wgt id='8'> +4.5350371e+02 </wgt>
<wgt id='9'> +6.2171332e+02 </wgt>
<wgt id='10'> +4.2441517e+02 </wgt>
<wgt id='11'> +5.5851672e+02 </wgt>
<wgt id='12'> +7.7039583e+02 </wgt>
<wgt id='13'> +4.0838401e+02 </wgt>
<wgt id='14'> +5.5851672e+02 </wgt>
<wgt id='15'> +3.8249689e+02 </wgt>
<wgt id='16'> +5.5363463e+02 </wgt>
<wgt id='17'> +7.3164608e+02 </wgt>
<wgt id='18'> +4.2402446e+02 </wgt>
<wgt id='19'> +5.5363463e+02 </wgt>
<wgt id='20'> +3.9858585e+02 </wgt>
<wgt id='21'> +6.7022805e+02 </wgt>
<wgt id='22'> +3.8092276e+02 </wgt>
<wgt id='23'> +5.0481800e+02 </wgt>
<wgt id='24'> +3.5799736e+02 </wgt>
<wgt id='25'> +4.5350371e+02 </wgt>
<wgt id='26'> +6.1071855e+02 </wgt>
<wgt id='27'> +3.4302424e+02 </wgt>
<wgt id='28'> +4.5350371e+02 </wgt>
<wgt id='29'> +3.2263897e+02 </wgt>
<wgt id='30'> +4.6502824e+02 </wgt>
<wgt id='31'> +5.9515529e+02 </wgt>
<wgt id='32'> +3.6138479e+02 </wgt>
<wgt id='33'> +4.6502824e+02 </wgt>
<wgt id='34'> +3.4068260e+02 </wgt>
<wgt id='35'> +4.2402446e+02 </wgt>
<wgt id='36'> +5.4519498e+02 </wgt>
<wgt id='37'> +3.2465035e+02 </wgt>
<wgt id='38'> +4.2402446e+02 </wgt>
<wgt id='39'> +3.0599047e+02 </wgt>
<wgt id='40'> +3.8092276e+02 </wgt>
<wgt id='41'> +4.9678716e+02 </wgt>
<wgt id='42'> +2.9235044e+02 </wgt>
<wgt id='43'> +3.8092276e+02 </wgt>
<wgt id='44'> +2.7576866e+02 </wgt>
<wgt id='45'> +5.0481800e+02 </wgt>
<wgt id='46'> +5.1641271e+02 </wgt>
<wgt id='47'> +5.3326754e+02 </wgt>
<wgt id='48'> +5.0290450e+02 </wgt>
<wgt id='49'> +4.5704834e+02 </wgt>
<wgt id='50'> +5.8426122e+02 </wgt>
<wgt id='51'> +4.7173092e+02 </wgt>
<wgt id='52'> +4.5470103e+02 </wgt>
<wgt id='53'> +5.1675685e+02 </wgt>
<wgt id='54'> +5.4003132e+02 </wgt>
<wgt id='55'> +5.9315561e+02 </wgt>
<wgt id='56'> +4.9181396e+02 </wgt>
<wgt id='57'> +5.4194498e+02 </wgt>
<wgt id='58'> +4.4803924e+02 </wgt>
<wgt id='59'> +5.4983240e+02 </wgt>
<wgt id='60'> +5.0099966e+02 </wgt>
<wgt id='61'> +4.2307540e+02 </wgt>
<wgt id='62'> +4.5402051e+02 </wgt>
<wgt id='63'> +5.3875826e+02 </wgt>
<wgt id='64'> +5.0848279e+02 </wgt>
<wgt id='65'> +4.3166294e+02 </wgt>
<wgt id='66'> +5.1686431e+02 </wgt>
<wgt id='67'> +5.0841308e+02 </wgt>
<wgt id='68'> +6.4054771e+02 </wgt>
<wgt id='69'> +5.6289654e+02 </wgt>
<wgt id='70'> +5.7142860e+02 </wgt>
<wgt id='71'> +4.5493529e+02 </wgt>
<wgt id='72'> +4.5034610e+02 </wgt>
<wgt id='73'> +4.5141601e+02 </wgt>
<wgt id='74'> +6.0069232e+02 </wgt>
<wgt id='75'> +5.7097973e+02 </wgt>
<wgt id='76'> +5.2188799e+02 </wgt>
<wgt id='77'> +4.6615933e+02 </wgt>
<wgt id='78'> +4.2347671e+02 </wgt>
<wgt id='79'> +5.5683050e+02 </wgt>
<wgt id='80'> +4.3164081e+02 </wgt>
<wgt id='81'> +5.3649565e+02 </wgt>
<wgt id='82'> +5.0125273e+02 </wgt>
<wgt id='83'> +4.9625503e+02 </wgt>
<wgt id='84'> +4.7652170e+02 </wgt>
<wgt id='85'> +4.4067369e+02 </wgt>
<wgt id='86'> +5.4091607e+02 </wgt>
<wgt id='87'> +4.9173199e+02 </wgt>
<wgt id='88'> +4.9467296e+02 </wgt>
<wgt id='89'> +3.9734858e+02 </wgt>
<wgt id='90'> +4.5112871e+02 </wgt>
<wgt id='91'> +4.1737484e+02 </wgt>
<wgt id='92'> +4.7791041e+02 </wgt>
<wgt id='93'> +5.1506529e+02 </wgt>
<wgt id='94'> +4.5744837e+02 </wgt>
<wgt id='95'> +5.3305263e+02 </wgt>
<wgt id='96'> +5.2613911e+02 </wgt>
<wgt id='97'> +4.4494902e+02 </wgt>
<wgt id='98'> +5.6447651e+02 </wgt>
<wgt id='99'> +4.0843636e+02 </wgt>
<wgt id='100'> +3.6388120e+02 </wgt>
<wgt id='101'> +5.9316321e+02 </wgt>
<wgt id='102'> +5.7739337e+02 </wgt>
<wgt id='103'> +4.6136299e+02 </wgt>
<wgt id='104'> +5.5035294e+02 </wgt>
<wgt id='105'> +5.1529518e+02 </wgt>
<wgt id='106'> +5.0323766e+02 </wgt>
<wgt id='107'> +4.9979063e+02 </wgt>
<wgt id='108'> +4.7919827e+02 </wgt>
<wgt id='109'> +5.0465105e+02 </wgt>
<wgt id='110'> +4.4945390e+02 </wgt>
<wgt id='111'> +4.8646207e+02 </wgt>
<wgt id='112'> +5.3500545e+02 </wgt>
<wgt id='113'> +5.5952561e+02 </wgt>
<wgt id='114'> +5.2776089e+02 </wgt>
<wgt id='115'> +4.6407271e+02 </wgt>
<wgt id='116'> +5.6200992e+02 </wgt>
<wgt id='117'> +4.9786980e+02 </wgt>
<wgt id='118'> +5.1233215e+02 </wgt>
<wgt id='119'> +5.6934649e+02 </wgt>
<wgt id='120'> +5.0439206e+02 </wgt>
<wgt id='121'> +4.8864345e+02 </wgt>
<wgt id='122'> +4.8966329e+02 </wgt>
<wgt id='123'> +4.6942656e+02 </wgt>
<wgt id='124'> +5.6657579e+02 </wgt>
<wgt id='125'> +6.5916708e+02 </wgt>
<wgt id='126'> +4.8692407e+02 </wgt>
<wgt id='127'> +4.7069348e+02 </wgt>
<wgt id='128'> +4.9707708e+02 </wgt>
<wgt id='129'> +4.9787605e+02 </wgt>
<wgt id='130'> +5.1223509e+02 </wgt>
<wgt id='131'> +4.4759356e+02 </wgt>
<wgt id='132'> +5.5053732e+02 </wgt>
<wgt id='133'> +5.5782631e+02 </wgt>
<wgt id='134'> +5.4336818e+02 </wgt>
<wgt id='135'> +4.7543526e+02 </wgt>
<wgt id='136'> +6.0991935e+02 </wgt>
<wgt id='137'> +5.5162807e+02 </wgt>
<wgt id='138'> +5.2885454e+02 </wgt>
<wgt id='139'> +5.2131074e+02 </wgt>
<wgt id='140'> +4.8796550e+02 </wgt>
<wgt id='141'> +5.9902811e+02 </wgt>
<wgt id='142'> +3.1484423e+02 </wgt>
<wgt id='143'> +5.1494702e+02 </wgt>
<wgt id='144'> +4.4890017e+02 </wgt>
<wgt id='145'> +4.5595797e+02 </wgt>
</rwgt>
</event>
<event>
 4      1 +5.0481800e+02 2.25091700e+02 7.54677100e-03 1.13014300e-01
        2 -1    0    0  502    0 +0.0000000000e+00 +0.0000000000e+00 +4.9753002624e+02 4.9753002624e+02 0.0000000000e+00 0.0000e+00 1.0000e+00
       -2 -1    0    0    0  501 -0.0000000000e+00 -0.0000000000e+00 -1.4543189889e+02 1.4543189889e+02 0.0000000000e+00 0.0000e+00 -1.0000e+00
        6  1    1    2  502    0 +2.6694436333e+01 +1.4150851095e+02 +3.3769861656e-02 2.2509165409e+02 1.7300000000e+02 0.0000e+00 -1.0000e+00
       -6  1    1    2    0  501 -2.6694436333e+01 -1.4150851095e+02 +3.5206435749e+02 4.1787027104e+02 1.7300000000e+02 0.0000e+00 -1.0000e+00
<mgrwt>
<rscale>  2 0.22509165E+03</rscale>
<asrwt>0</asrwt>
<pdfrwt beam="1">  1        2 0.76543080E-01 0.22509165E+03</pdfrwt>
<pdfrwt beam="2">  1       -2 0.22374138E-01 0.22509165E+03</pdfrwt>
<totfact> 0.10825325E+03</totfact>
</mgrwt>
<rwgt>
<wgt id='1'> +6.0876005e+02 </wgt>
<wgt id='2'> +5.2534997e+02 </wgt>
<wgt id='3'> +5.0481800e+02 </wgt>
<wgt id='4'> +6.0876005e+02 </wgt>
<wgt id='5'> +4.8336206e+02 </wgt>
<wgt id='6'> +6.1422816e+02 </wgt>
<wgt id='7'> +5.2765668e+02 </wgt>
<wgt id='8'> +5.0641419e+02 </wgt>
<wgt id='9'> +6.1422816e+02 </wgt>
<wgt id='10'> +4.8427763e+02 </wgt>
<wgt id='11'> +6.1617030e+02 </wgt>
<wgt id='12'> +5.2746562e+02 </wgt>
<wgt id='13'> +5.0576403e+02 </wgt>
<wgt id='14'> +6.1617030e+02 </wgt>
<wgt id='15'> +4.8319419e+02 </wgt>
<wgt id='16'> +5.0032391e+02 </wgt>
<wgt id='17'> +4.4222830e+02 </wgt>
<wgt id='18'> +4.2641443e+02 </wgt>
<wgt id='19'> +5.0032391e+02 </wgt>
<wgt id='20'> +4.0974453e+02 </wgt>
<wgt id='21'> +4.4417004e+02 </wgt>
<wgt id='22'> +4.2776272e+02 </wgt>
<wgt id='23'> +5.0481800e+02 </wgt>
<wgt id='24'> +4.1052066e+02 </wgt>
<wgt id='25'> +5.0641419e+02 </wgt>
<wgt id='26'> +4.4400921e+02 </wgt>
<wgt id='27'> +4.2721354e+02 </wgt>
<wgt id='28'> +5.0641419e+02 </wgt>
<wgt id='29'> +4.0960223e+02 </wgt>
<wgt id='30'> +4.2261832e+02 </wgt>
<wgt id='31'> +3.7739333e+02 </wgt>
<wgt id='32'> +3.6494254e+02 </wgt>
<wgt id='33'> +4.2261832e+02 </wgt>
<wgt id='34'> +3.5174899e+02 </wgt>
<wgt id='35'> +4.2641443e+02 </wgt>
<wgt id='36'> +3.7905038e+02 </wgt>
<wgt id='37'> +3.6609646e+02 </wgt>
<wgt id='38'> +4.2641443e+02 </wgt>
<wgt id='39'> +3.5241526e+02 </wgt>
<wgt id='40'> +4.2776272e+02 </wgt>
<wgt id='41'> +3.7891314e+02 </wgt>
<wgt id='42'> +3.6562645e+02 </wgt>
<wgt id='43'> +4.2776272e+02 </wgt>
<wgt id='44'> +3.5162683e+02 </wgt>
<wgt id='45'> +5.0481800e+02 </wgt>
<wgt id='46'> +5.1095807e+02 </wgt>
<wgt id='47'> +4.8843367e+02 </wgt>
<wgt id='48'> +4.9309236e+02 </wgt>
<wgt id='49'> +5.0608398e+02 </wgt>
<wgt id='50'> +4.5128167e+02 </wgt>
<wgt id='51'> +5.1429725e+02 </wgt>
<wgt id='52'> +4.9716811e+02 </wgt>
<wgt id='53'> +5.1381822e+02 </wgt>
<wgt id='54'> +4.9106959e+02 </wgt>
<wgt id='55'> +4.8086297e+02 </wgt>
<wgt id='56'> +5.4606350e+02 </wgt>
<wgt id='57'> +4.9261267e+02 </wgt>
<wgt id='58'> +5.1387830e+02 </wgt>
<wgt id='59'> +4.9015579e+02 </wgt>
<wgt id='60'> +5.0479308e+02 </wgt>
<wgt id='61'> +5.5078639e+02 </wgt>
<wgt id='62'> +5.3401601e+02 </wgt>
<wgt id='63'> +5.2070925e+02 </wgt>
<wgt id='64'> +4.9494006e+02 </wgt>
<wgt id='65'> +4.8136497e+02 </wgt>
<wgt id='66'> +5.3253974e+02 </wgt>
<wgt id='67'> +5.2125574e+02 </wgt>
<wgt id='68'> +4.1799998e+02 </wgt>
<wgt id='69'> +4.7440623e+02 </wgt>
<wgt id='70'> +4.9355175e+02 </wgt>
<wgt id='71'> +5.1667595e+02 </wgt>
<wgt id='72'> +5.0907351e+02 </wgt>
<wgt id='73'> +5.1511679e+02 </wgt>
<wgt id='74'> +4.5183555e+02 </wgt>
<wgt id='75'> +4.7541400e+02 </wgt>
<wgt id='76'> +5.1900789e+02 </wgt>
<wgt id='77'> +5.2630229e+02 </wgt>
<wgt id='78'> +5.2089939e+02 </wgt>
<wgt id='79'> +5.1063108e+02 </wgt>
<wgt id='80'> +5.3924783e+02 </wgt>
<wgt id='81'> +5.0431694e+02 </wgt>
<wgt id='82'> +4.9856807e+02 </wgt>
<wgt id='83'> +4.8002836e+02 </wgt>
<wgt id='84'> +5.1084908e+02 </wgt>
<wgt id='85'> +5.0353046e+02 </wgt>
<wgt id='86'> +5.1691364e+02 </wgt>
<wgt id='87'> +5.0938526e+02 </wgt>
<wgt id='88'> +5.0552672e+02 </wgt>
<wgt id='89'> +5.3575538e+02 </wgt>
<wgt id='90'> +5.5582461e+02 </wgt>
<wgt id='91'> +4.8079523e+02 </wgt>
<wgt id='92'> +5.3420891e+02 </wgt>
<wgt id='93'> +4.9635335e+02 </wgt>
<wgt id='94'> +5.1935626e+02 </wgt>
<wgt id='95'> +5.0226085e+02 </wgt>
<wgt id='96'> +4.9237616e+02 </wgt>
<wgt id='97'> +5.2081454e+02 </wgt>
<wgt id='98'> +5.1115063e+02 </wgt>
<wgt id='99'> +5.3160931e+02 </wgt>
<wgt id='100'> +5.4629915e+02 </wgt>
<wgt id='101'> +4.4648997e+02 </wgt>
<wgt id='102'> +4.7371272e+02 </wgt>
<wgt id='103'> +4.9272833e+02 </wgt>
<wgt id='104'> +4.9550031e+02 </wgt>
<wgt id='105'> +4.9099963e+02 </wgt>
<wgt id='106'> +5.3328713e+02 </wgt>
<wgt id='107'> +4.9517292e+02 </wgt>
<wgt id='108'> +5.5045479e+02 </wgt>
<wgt id='109'> +5.3078349e+02 </wgt>
<wgt id='110'> +5.3044869e+02 </wgt>
<wgt id='111'> +5.2068297e+02 </wgt>
<wgt id='112'> +5.0952054e+02 </wgt>
<wgt id='113'> +5.0923209e+02 </wgt>
<wgt id='114'> +5.0651522e+02 </wgt>
<wgt id='115'> +5.2504076e+02 </wgt>
<wgt id='116'> +4.9197375e+02 </wgt>
<wgt id='117'> +5.0377922e+02 </wgt>
<wgt id='118'> +4.7192743e+02 </wgt>
<wgt id='119'> +5.0958699e+02 </wgt>
<wgt id='120'> +4.9824901e+02 </wgt>
<wgt id='121'> +5.0932848e+02 </wgt>
<wgt id='122'> +5.1684116e+02 </wgt>
<wgt id='123'> +5.3671449e+02 </wgt>
<wgt id='124'> +4.7750123e+02 </wgt>
<wgt id='125'> +4.4042521e+02 </wgt>
<wgt id='126'> +5.0400043e+02 </wgt>
<wgt id='127'> +5.0446808e+02 </wgt>
<wgt id='128'> +5.2603569e+02 </wgt>
<wgt id='129'> +4.6071884e+02 </wgt>
<wgt id='130'> +4.9330145e+02 </wgt>
<wgt id='131'> +4.9405803e+02 </wgt>
<wgt id='132'> +4.7412768e+02 </wgt>
<wgt id='133'> +5.1615495e+02 </wgt>
<wgt id='134'> +4.8396050e+02 </wgt>
<wgt id='135'> +4.8977756e+02 </wgt>
<wgt id='136'> +4.8071867e+02 </wgt>
<wgt id='137'> +5.2999964e+02 </wgt>
<wgt id='138'> +5.1896534e+02 </wgt>
<wgt id='139'> +5.0638963e+02 </wgt>
<wgt id='140'> +4.7637926e+02 </wgt>
<wgt id='141'> +4.7727031e+02 </wgt>
<wgt id='142'> +5.5323824e+02 </wgt>
<wgt id='143'> +5.1923372e+02 </wgt>
<wgt id='144'> +5.3767469e+02 </wgt>
<wgt id='145'> +5.2335117e+02 </wgt>
</rwgt>
</event>
<event>
 4      1 +5.0481800e+02 1.81828300e+02 7.54677100e-03 1.16604500e-01
       -2 -1    0    0    0  501 -0.0000000000e+00 +0.0000000000e+00 +7.3227108058e+01 7.3227108058e+01 0.0000000000e+00 0.0000e+00 1.0000e+00
        2 -1    0    0  502    0 +0.0000000000e+00 -0.0000000000e+00 -6.3459873296e+02 6.3459873296e+02 0.0000000000e+00 0.0000e+00 -1.0000e+00
        6  1    1    2  502    0 -5.5412117338e+01 +7.8762877480e+00 -4.7079258770e+02 5.0468524774e+02 1.7300000000e+02 0.0000e+00 -1.0000e+00
       -6  1    1    2    0  501 +5.5412117338e+01 -7.8762877480e+00 -9.0579037205e+01 2.0314059328e+02 1.7300000000e+02 0.0000e+00 1.0000e+00
<mgrwt>
<rscale>  2 0.18182832E+03</rscale>
<asrwt>0</asrwt>
<pdfrwt beam="2">  1        2 0.97630569E-01 0.18182832E+03</pdfrwt>
<pdfrwt beam="1">  1       -2 0.11265710E-01 0.18182832E+03</pdfrwt>
<totfact> 0.25565549E+03</totfact>
</mgrwt>
<rwgt>
<wgt id='1'> +6.0753589e+02 </wgt>
<wgt id='2'> +6.2293989e+02 </wgt>
<wgt id='3'> +5.0481800e+02 </wgt>
<wgt id='4'> +6.0753589e+02 </wgt>
<wgt id='5'> +4.8485814e+02 </wgt>
<wgt id='6'> +6.2111310e+02 </wgt>
<wgt id='7'> +6.3756299e+02 </wgt>
<wgt id='8'> +5.1223052e+02 </wgt>
<wgt id='9'> +6.2111310e+02 </wgt>
<wgt id='10'> +4.9118895e+02 </wgt>
<wgt id='11'> +6.3023325e+02 </wgt>
<wgt id='12'> +6.4749228e+02 </wgt>
<wgt id='13'> +5.1668244e+02 </wgt>
<wgt id='14'> +6.3023324e+02 </wgt>
<wgt id='15'> +4.9484887e+02 </wgt>
<wgt id='16'> +4.9378294e+02 </wgt>
<wgt id='17'> +5.0425545e+02 </wgt>
<wgt id='18'> +4.2428491e+02 </wgt>
<wgt id='19'> +4.9378294e+02 </wgt>
<wgt id='20'> +4.0922357e+02 </wgt>
<wgt id='21'> +5.1609251e+02 </wgt>
<wgt id='22'> +4.3051492e+02 </wgt>
<wgt id='23'> +5.0481800e+02 </wgt>
<wgt id='24'> +4.1456681e+02 </wgt>
<wgt id='25'> +5.1223052e+02 </wgt>
<wgt id='26'> +5.2413004e+02 </wgt>
<wgt id='27'> +4.3425663e+02 </wgt>
<wgt id='28'> +5.1223052e+02 </wgt>
<wgt id='29'> +4.1765581e+02 </wgt>
<wgt id='30'> +4.1501026e+02 </wgt>
<wgt id='31'> +4.2251858e+02 </wgt>
<wgt id='32'> +3.6173456e+02 </wgt>
<wgt id='33'> +4.1501026e+02 </wgt>
<wgt id='34'> +3.4996540e+02 </wgt>
<wgt id='35'> +4.2428491e+02 </wgt>
<wgt id='36'> +4.3243692e+02 </wgt>
<wgt id='37'> +3.6704611e+02 </wgt>
<wgt id='38'> +4.2428491e+02 </wgt>
<wgt id='39'> +3.5453490e+02 </wgt>
<wgt id='40'> +4.3051492e+02 </wgt>
<wgt id='41'> +4.3917162e+02 </wgt>
<wgt id='42'> +3.7023619e+02 </wgt>
<wgt id='43'> +4.3051492e+02 </wgt>
<wgt id='44'> +3.5717660e+02 </wgt>
<wgt id='45'> +5.0481800e+02 </wgt>
<wgt id='46'> +5.0269533e+02 </wgt>
<wgt id='47'> +4.8769326e+02 </wgt>
<wgt id='48'> +4.9730534e+02 </wgt>
<wgt id='49'> +5.0139685e+02 </wgt>
<wgt id='50'> +4.6239536e+02 </wgt>
<wgt id='51'> +5.1765582e+02 </wgt>
<wgt id='52'> +4.9011631e+02 </wgt>
<wgt id='53'> +5.1772591e+02 </wgt>
<wgt id='54'> +4.9471083e+02 </wgt>
<wgt id='55'> +4.8818819e+02 </wgt>
<wgt id='56'> +5.4147985e+02 </wgt>
<wgt id='57'> +4.9830776e+02 </wgt>
<wgt id='58'> +5.1664672e+02 </wgt>
<wgt id='59'> +4.8449636e+02 </wgt>
<wgt id='60'> +5.0368751e+02 </wgt>
<wgt id='61'> +5.5740421e+02 </wgt>
<wgt id='62'> +5.2918146e+02 </wgt>
<wgt id='63'> +5.0654167e+02 </wgt>
<wgt id='64'> +5.0062392e+02 </wgt>
<wgt id='65'> +4.9588834e+02 </wgt>
<wgt id='66'> +5.3100894e+02 </wgt>
<wgt id='67'> +5.1309540e+02 </wgt>
<wgt id='68'> +4.2096180e+02 </wgt>
<wgt id='69'> +4.7432876e+02 </wgt>
<wgt id='70'> +4.8904387e+02 </wgt>
<wgt id='71'> +5.2235122e+02 </wgt>
<wgt id='72'> +5.2458509e+02 </wgt>
<wgt id='73'> +5.1516067e+02 </wgt>
<wgt id='74'> +4.5437460e+02 </wgt>
<wgt id='75'> +4.7529242e+02 </wgt>
<wgt id='76'> +5.2578250e+02 </wgt>
<wgt id='77'> +5.2425648e+02 </wgt>
<wgt id='78'> +5.3203141e+02 </wgt>
<wgt id='79'> +5.1023851e+02 </wgt>
<wgt id='80'> +5.4436594e+02 </wgt>
<wgt id='81'> +5.0381427e+02 </wgt>
<wgt id='82'> +5.0554213e+02 </wgt>
<wgt id='83'> +4.8528668e+02 </wgt>
<wgt id='84'> +5.0288383e+02 </wgt>
<wgt id='85'> +5.0085766e+02 </wgt>
<wgt id='86'> +4.9926116e+02 </wgt>
<wgt id='87'> +5.0835451e+02 </wgt>
<wgt id='88'> +5.0952141e+02 </wgt>
<wgt id='89'> +5.0630865e+02 </wgt>
<wgt id='90'> +5.4278842e+02 </wgt>
<wgt id='91'> +4.8354304e+02 </wgt>
<wgt id='92'> +5.3822172e+02 </wgt>
<wgt id='93'> +4.8909440e+02 </wgt>
<wgt id='94'> +5.0894887e+02 </wgt>
<wgt id='95'> +5.0349157e+02 </wgt>
<wgt id='96'> +4.8960087e+02 </wgt>
<wgt id='97'> +5.2345529e+02 </wgt>
<wgt id='98'> +5.1211182e+02 </wgt>
<wgt id='99'> +5.2624271e+02 </wgt>
<wgt id='100'> +5.5925948e+02 </wgt>
<wgt id='101'> +4.4102787e+02 </wgt>
<wgt id='102'> +4.6773406e+02 </wgt>
<wgt id='103'> +4.8068838e+02 </wgt>
<wgt id='104'> +4.9436905e+02 </wgt>
<wgt id='105'> +4.9966902e+02 </wgt>
<wgt id='106'> +5.3795954e+02 </wgt>
<wgt id='107'> +5.0195077e+02 </wgt>
<wgt id='108'> +5.6106410e+02 </wgt>
<wgt id='109'> +5.3140008e+02 </wgt>
<wgt id='110'> +5.2725016e+02 </wgt>
<wgt id='111'> +5.2952769e+02 </wgt>
<wgt id='112'> +5.1995306e+02 </wgt>
<wgt id='113'> +5.0903377e+02 </wgt>
<wgt id='114'> +5.1235397e+02 </wgt>
<wgt id='115'> +5.3495398e+02 </wgt>
<wgt id='116'> +4.8775981e+02 </wgt>
<wgt id='117'> +5.0526128e+02 </wgt>
<wgt id='118'> +4.6983369e+02 </wgt>
<wgt id='119'> +5.0429850e+02 </wgt>
<wgt id='120'> +5.0110902e+02 </wgt>
<wgt id='121'> +5.1046018e+02 </wgt>
<wgt id='122'> +5.1951152e+02 </wgt>
<wgt id='123'> +5.4105012e+02 </wgt>
<wgt id='124'> +4.7139846e+02 </wgt>
<wgt id='125'> +4.3987819e+02 </wgt>
<wgt id='126'> +4.9826797e+02 </wgt>
<wgt id='127'> +4.9618386e+02 </wgt>
<wgt id='128'> +5.2471450e+02 </wgt>
<wgt id='129'> +4.6827739e+02 </wgt>
<wgt id='130'> +4.9823825e+02 </wgt>
<wgt id='131'> +4.9158400e+02 </wgt>
<wgt id='132'> +4.7075224e+02 </wgt>
<wgt id='133'> +4.8958733e+02 </wgt>
<wgt id='134'> +4.9415774e+02 </wgt>
<wgt id='135'> +4.9872728e+02 </wgt>
<wgt id='136'> +4.8086007e+02 </wgt>
<wgt id='137'> +5.2696773e+02 </wgt>
<wgt id='138'> +5.1576923e+02 </wgt>
<wgt id='139'> +4.8621680e+02 </wgt>
<wgt id='140'> +4.9037520e+02 </wgt>
<wgt id='141'> +4.7986026e+02 </wgt>
<wgt id='142'> +5.6526737e+02 </wgt>
<wgt id='143'> +5.2085013e+02 </wgt>
<wgt id='144'> +5.4144348e+02 </wgt>
<wgt id='145'> +5.1767784e+02 </wgt>
</rwgt>
</event>
<event>
 4      1 +5.0481800e+02 2.00274300e+02 7.54677100e-03 1.14950800e-01
       21 -1    0    0  503  502 +0.0000000000e+00 +0.0000000000e+00 +2.6519149948e+02 2.6519149948e+02 0.0000000000e+00 0.0000e+00 1.0000e+00
       21 -1    0    0  501  503 -0.0000000000e+00 -0.0000000000e+00 -4.2111226992e+02 4.2111226992e+02 0.0000000000e+00 0.0000e+00 -1.0000e+00
        6  1    1    2  501    0 +9.2622744012e+01 +4.0022903007e+01 -3.5266108498e+02 4.0556090336e+02 1.7300000000e+02 0.0000e+00 -1.0000e+00
       -6  1    1    2    0  502 -9.2622744012e+01 -4.0022903007e+01 +1.9674031454e+02 2.8074286605e+02 1.7300000000e+02 0.0000e+00 1.0000e+00
<mgrwt>
<rscale>  2 0.20027433E+03</rscale>
<asrwt>0</asrwt>
<pdfrwt beam="1">  1       21 0.40798692E-01 0.20027433E+03</pdfrwt>
<pdfrwt beam="2">  1       21 0.64786503E-01 0.20027433E+03</pdfrwt>
<totfact> 0.12640137E+04</totfact>
</mgrwt>
<rwgt>
<wgt id='1'> +6.6847863e+02 </wgt>
<wgt id='2'> +6.2032808e+02 </wgt>
<wgt id='3'> +5.0481800e+02 </wgt>
<wgt id='4'> +6.6847863e+02 </wgt>
<wgt id='5'> +4.1515580e+02 </wgt>
<wgt id='6'> +6.1824422e+02 </wgt>
<wgt id='7'> +5.7100495e+02 </wgt>
<wgt id='8'> +4.6069498e+02 </wgt>
<wgt id='9'> +6.1824422e+02 </wgt>
<wgt id='10'> +3.7957532e+02 </wgt>
<wgt id='11'> +5.6420731e+02 </wgt>
<wgt id='12'> +5.2146861e+02 </wgt>
<wgt id='13'> +4.2149274e+02 </wgt>
<wgt id='14'> +5.6420732e+02 </wgt>
<wgt id='15'> +3.4796934e+02 </wgt>
<wgt id='16'> +5.4583615e+02 </wgt>
<wgt id='17'> +5.1152456e+02 </wgt>
<wgt id='18'> +4.2542820e+02 </wgt>
<wgt id='19'> +5.4583615e+02 </wgt>
<wgt id='20'> +3.5339648e+02 </wgt>
<wgt id='21'> +4.7085254e+02 </wgt>
<wgt id='22'> +3.8824415e+02 </wgt>
<wgt id='23'> +5.0481800e+02 </wgt>
<wgt id='24'> +3.2310901e+02 </wgt>
<wgt id='25'> +4.6069498e+02 </wgt>
<wgt id='26'> +4.3000471e+02 </wgt>
<wgt id='27'> +3.5520702e+02 </wgt>
<wgt id='28'> +4.6069498e+02 </wgt>
<wgt id='29'> +2.9620479e+02 </wgt>
<wgt id='30'> +4.5999566e+02 </wgt>
<wgt id='31'> +4.3262234e+02 </wgt>
<wgt id='32'> +3.6334555e+02 </wgt>
<wgt id='33'> +4.5999567e+02 </wgt>
<wgt id='34'> +3.0445881e+02 </wgt>
<wgt id='35'> +4.2542820e+02 </wgt>
<wgt id='36'> +3.9822394e+02 </wgt>
<wgt id='37'> +3.3158776e+02 </wgt>
<wgt id='38'> +4.2542820e+02 </wgt>
<wgt id='39'> +2.7836549e+02 </wgt>
<wgt id='40'> +3.8824415e+02 </wgt>
<wgt id='41'> +3.6367686e+02 </wgt>
<wgt id='42'> +3.0337173e+02 </wgt>
<wgt id='43'> +3.8824415e+02 </wgt>
<wgt id='44'> +2.5518692e+02 </wgt>
<wgt id='45'> +5.0481800e+02 </wgt>
<wgt id='46'> +5.1540968e+02 </wgt>
<wgt id='47'> +5.2855643e+02 </wgt>
<wgt id='48'> +5.1266050e+02 </wgt>
<wgt id='49'> +5.0237675e+02 </wgt>
<wgt id='50'> +6.2044171e+02 </wgt>
<wgt id='51'> +4.9461569e+02 </wgt>
<wgt id='52'> +5.0469234e+02 </wgt>
<wgt id='53'> +5.0222954e+02 </wgt>
<wgt id='54'> +5.0847205e+02 </wgt>
<wgt id='55'> +4.5035263e+02 </wgt>
<wgt id='56'> +4.5708756e+02 </wgt>
<wgt id='57'> +4.9244280e+02 </wgt>
<wgt id='58'> +4.9813189e+02 </wgt>
<wgt id='59'> +5.1025504e+02 </wgt>
<wgt id='60'> +4.9488012e+02 </wgt>
<wgt id='61'> +4.6600915e+02 </wgt>
<wgt id='62'> +4.9957920e+02 </wgt>
<wgt id='63'> +5.0530181e+02 </wgt>
<wgt id='64'> +4.9081254e+02 </wgt>
<wgt id='65'> +5.9386436e+02 </wgt>
<wgt id='66'> +4.9447961e+02 </wgt>
<wgt id='67'> +5.0913168e+02 </wgt>
<wgt id='68'> +5.5516182e+02 </wgt>
<wgt id='69'> +5.0489231e+02 </wgt>
<wgt id='70'> +4.9421922e+02 </wgt>
<wgt id='71'> +5.1370333e+02 </wgt>
<wgt id='72'> +4.7309107e+02 </wgt>
<wgt id='73'> +4.9246813e+02 </wgt>
<wgt id='74'> +5.3231597e+02 </wgt>
<wgt id='75'> +5.1900994e+02 </wgt>
<wgt id='76'> +4.8796272e+02 </wgt>
<wgt id='77'> +4.9253818e+02 </wgt>
<wgt id='78'> +4.9213654e+02 </wgt>
<wgt id='79'> +4.9082601e+02 </wgt>
<wgt id='80'> +4.9537394e+02 </wgt>
<wgt id='81'> +4.9121575e+02 </wgt>
<wgt id='82'> +5.1079161e+02 </wgt>
<wgt id='83'> +5.2018486e+02 </wgt>
<wgt id='84'> +5.6014680e+02 </wgt>
<wgt id='85'> +5.3055068e+02 </wgt>
<wgt id='86'> +5.0795310e+02 </wgt>
<wgt id='87'> +5.0876624e+02 </wgt>
<wgt id='88'> +5.1581696e+02 </wgt>
<wgt id='89'> +5.2147340e+02 </wgt>
<wgt id='90'> +5.1484118e+02 </wgt>
<wgt id='91'> +5.3318091e+02 </wgt>
<wgt id='92'> +4.4571553e+02 </wgt>
<wgt id='93'> +5.0189215e+02 </wgt>
<wgt id='94'> +4.9397576e+02 </wgt>
<wgt id='95'> +4.8097239e+02 </wgt>
<wgt id='96'> +5.5912325e+02 </wgt>
<wgt id='97'> +5.0577105e+02 </wgt>
<wgt id='98'> +4.8403416e+02 </wgt>
<wgt id='99'> +4.8452480e+02 </wgt>
<wgt id='100'> +4.8150166e+02 </wgt>
<wgt id='101'> +5.5390648e+02 </wgt>
<wgt id='102'> +5.0938776e+02 </wgt>
<wgt id='103'> +5.5765849e+02 </wgt>
<wgt id='104'> +5.0956977e+02 </wgt>
<wgt id='105'> +5.1842893e+02 </wgt>
<wgt id='106'> +4.4728124e+02 </wgt>
<wgt id='107'> +4.8071543e+02 </wgt>
<wgt id='108'> +4.3473838e+02 </wgt>
<wgt id='109'> +4.6398061e+02 </wgt>
<wgt id='110'> +5.0203965e+02 </wgt>
<wgt id='111'> +4.8552916e+02 </wgt>
<wgt id='112'> +4.7148649e+02 </wgt>
<wgt id='113'> +4.5501175e+02 </wgt>
<wgt id='114'> +4.8693907e+02 </wgt>
<wgt id='115'> +4.8611810e+02 </wgt>
<wgt id='116'> +5.2065105e+02 </wgt>
<wgt id='117'> +5.0452817e+02 </wgt>
<wgt id='118'> +5.3217738e+02 </wgt>
<wgt id='119'> +4.8059420e+02 </wgt>
<wgt id='120'> +4.9127259e+02 </wgt>
<wgt id='121'> +4.8593034e+02 </wgt>
<wgt id='122'> +4.9636765e+02 </wgt>
<wgt id='123'> +5.1471578e+02 </wgt>
<wgt id='124'> +5.5905247e+02 </wgt>
<wgt id='125'> +5.5901185e+02 </wgt>
<wgt id='126'> +5.3030659e+02 </wgt>
<wgt id='127'> +5.2513580e+02 </wgt>
<wgt id='128'> +4.5757608e+02 </wgt>
<wgt id='129'> +5.7859984e+02 </wgt>
<wgt id='130'> +5.1036498e+02 </wgt>
<wgt id='131'> +5.3956164e+02 </wgt>
<wgt id='132'> +5.1301444e+02 </wgt>
<wgt id='133'> +5.1358017e+02 </wgt>
<wgt id='134'> +4.7763134e+02 </wgt>
<wgt id='135'> +5.1762996e+02 </wgt>
<wgt id='136'> +4.9553104e+02 </wgt>
<wgt id='137'> +4.7923330e+02 </wgt>
<wgt id='138'> +4.7082692e+02 </wgt>
<wgt id='139'> +5.2103475e+02 </wgt>
<wgt id='140'> +5.2990145e+02 </wgt>
<wgt id='141'> +5.0820678e+02 </wgt>
<wgt id='142'> +4.9138202e+02 </wgt>
<wgt id='143'> +5.0735704e+02 </wgt>
<wgt id='144'> +4.9606770e+02 </wgt>
<wgt id='145'> +5.0590633e+02 </wgt>
</rwgt>
</event>
<event>
 4      1 +5.0481800e+02 1.85794300e+02 7.54677100e-03 1.16231000e-01
       21 -1    0    0  503  502 +0.0000000000e+00 +0.0000000000e+00 +1.1961603030e+02 1.1961603030e+02 0.0000000000e+00 0.0000e+00 -1.0000e+00
       21 -1    0    0  501  503 -0.0000000000e+00 -0.0000000000e+00 -3.8891888201e+02 3.8891888201e+02 0.0000000000e+00 0.0000e+00 -1.0000e+00
        6  1    1    2  501    0 +2.7742897500e+01 -6.1813035355e+01 -2.6379796218e+02 3.2265908410e+02 1.7300000000e+02 0.0000e+00 -1.0000e+00
       -6  1    1    2    0  502 -2.7742897500e+01 +6.1813035355e+01 -5.5048895194e+00 1.8587582820e+02 1.7300000000e+02 0.0000e+00 -1.0000e+00
<mgrwt>
<rscale>  2 0.18579429E+03</rscale>
<asrwt>0</asrwt>
<pdfrwt beam="1">  1       21 0.18402467E-01 0.18579429E+03</pdfrwt>
<pdfrwt beam="2">  1       21 0.59833673E-01 0.18579429E+03</pdfrwt>
<totfact> 0.70455779E+04</totfact>
</mgrwt>
<rwgt>
<wgt id='1'> +6.4906083e+02 </wgt>
<wgt id='2'> +5.6909866e+02 </wgt>
<wgt id='3'> +5.0481800e+02 </wgt>
<wgt id='4'> +6.4906082e+02 </wgt>
<wgt id='5'> +4.7919171e+02 </wgt>
<wgt id='6'> +6.2052027e+02 </wgt>
<wgt id='7'> +5.3818408e+02 </wgt>
<wgt id='8'> +4.7378836e+02 </wgt>
<wgt id='9'> +6.2052026e+02 </wgt>
<wgt id='10'> +4.4946349e+02 </wgt>
<wgt id='11'> +5.8237876e+02 </wgt>
<wgt id='12'> +5.0474637e+02 </wgt>
<wgt id='13'> +4.4428914e+02 </wgt>
<wgt id='14'> +5.8237876e+02 </wgt>
<wgt id='15'> +4.2148123e+02 </wgt>
<wgt id='16'> +5.2803689e+02 </wgt>
<wgt id='17'> +4.7175247e+02 </wgt>
<wgt id='18'> +4.2456386e+02 </wgt>
<wgt id='19'> +5.2803688e+02 </wgt>
<wgt id='20'> +4.0444523e+02 </wgt>
<wgt id='21'> +4.4612593e+02 </wgt>
<wgt id='22'> +3.9846720e+02 </wgt>
<wgt id='23'> +5.0481800e+02 </wgt>
<wgt id='24'> +3.7935416e+02 </wgt>
<wgt id='25'> +4.7378836e+02 </wgt>
<wgt id='26'> +4.1840785e+02 </wgt>
<wgt id='27'> +3.7365767e+02 </wgt>
<wgt id='28'> +4.7378836e+02 </wgt>
<wgt id='29'> +3.5573669e+02 </wgt>
<wgt id='30'> +4.4409150e+02 </wgt>
<wgt id='31'> +3.9980086e+02 </wgt>
<wgt id='32'> +3.6211473e+02 </wgt>
<wgt id='33'> +4.4409149e+02 </wgt>
<wgt id='34'> +3.4588233e+02 </wgt>
<wgt id='35'> +4.2456386e+02 </wgt>
<wgt id='36'> +3.7808287e+02 </wgt>
<wgt id='37'> +3.3985663e+02 </wgt>
<wgt id='38'> +4.2456386e+02 </wgt>
<wgt id='39'> +3.2442440e+02 </wgt>
<wgt id='40'> +3.9846721e+02 </wgt>
<wgt id='41'> +3.5459235e+02 </wgt>
<wgt id='42'> +3.1869633e+02 </wgt>
<wgt id='43'> +3.9846720e+02 </wgt>
<wgt id='44'> +3.0422669e+02 </wgt>
<wgt id='45'> +5.0481800e+02 </wgt>
<wgt id='46'> +5.0640983e+02 </wgt>
<wgt id='47'> +5.2179308e+02 </wgt>
<wgt id='48'> +5.0650604e+02 </wgt>
<wgt id='49'> +5.0298683e+02 </wgt>
<wgt id='50'> +5.8907093e+02 </wgt>
<wgt id='51'> +4.9492185e+02 </wgt>
<wgt id='52'> +5.0285509e+02 </wgt>
<wgt id='53'> +5.0835775e+02 </wgt>
<wgt id='54'> +5.0810739e+02 </wgt>
<wgt id='55'> +4.5590948e+02 </wgt>
<wgt id='56'> +4.6850267e+02 </wgt>
<wgt id='57'> +4.9401419e+02 </wgt>
<wgt id='58'> +5.0678150e+02 </wgt>
<wgt id='59'> +5.0189696e+02 </wgt>
<wgt id='60'> +4.8816683e+02 </wgt>
<wgt id='61'> +4.8420772e+02 </wgt>
<wgt id='62'> +4.9795240e+02 </wgt>
<wgt id='63'> +5.0526934e+02 </wgt>
<wgt id='64'> +4.9904487e+02 </wgt>
<wgt id='65'> +5.8854338e+02 </wgt>
<wgt id='66'> +4.9320859e+02 </wgt>
<wgt id='67'> +5.0910663e+02 </wgt>
<wgt id='68'> +5.4262344e+02 </wgt>
<wgt id='69'> +4.9333058e+02 </wgt>
<wgt id='70'> +4.9668002e+02 </wgt>
<wgt id='71'> +5.1403669e+02 </wgt>
<wgt id='72'> +4.9118424e+02 </wgt>
<wgt id='73'> +4.9737400e+02 </wgt>
<wgt id='74'> +5.2146459e+02 </wgt>
<wgt id='75'> +5.1550090e+02 </wgt>
<wgt id='76'> +4.9169182e+02 </wgt>
<wgt id='77'> +4.8813593e+02 </wgt>
<wgt id='78'> +5.0180680e+02 </wgt>
<wgt id='79'> +4.8658952e+02 </wgt>
<wgt id='80'> +4.9935983e+02 </wgt>
<wgt id='81'> +4.9558710e+02 </wgt>
<wgt id='82'> +5.1511214e+02 </wgt>
<wgt id='83'> +5.1403771e+02 </wgt>
<wgt id='84'> +5.5166260e+02 </wgt>
<wgt id='85'> +5.2835080e+02 </wgt>
<wgt id='86'> +5.0203502e+02 </wgt>
<wgt id='87'> +5.0545050e+02 </wgt>
<wgt id='88'> +5.1197749e+02 </wgt>
<wgt id='89'> +5.1645957e+02 </wgt>
<wgt id='90'> +5.1174608e+02 </wgt>
<wgt id='91'> +5.3404164e+02 </wgt>
<wgt id='92'> +4.6531016e+02 </wgt>
<wgt id='93'> +4.9708853e+02 </wgt>
<wgt id='94'> +5.0097189e+02 </wgt>
<wgt id='95'> +4.8677125e+02 </wgt>
<wgt id='96'> +5.4371720e+02 </wgt>
<wgt id='97'> +5.1077830e+02 </wgt>
<wgt id='98'> +4.8344729e+02 </wgt>
<wgt id='99'> +4.8910051e+02 </wgt>
<wgt id='100'> +4.9730905e+02 </wgt>
<wgt id='101'> +5.3377840e+02 </wgt>
<wgt id='102'> +4.9426172e+02 </wgt>
<wgt id='103'> +5.4734162e+02 </wgt>
<wgt id='104'> +5.0412412e+02 </wgt>
<wgt id='105'> +5.2439441e+02 </wgt>
<wgt id='106'> +4.6456937e+02 </wgt>
<wgt id='107'> +4.9629692e+02 </wgt>
<wgt id='108'> +4.5182485e+02 </wgt>
<wgt id='109'> +4.7479289e+02 </wgt>
<wgt id='110'> +5.0546059e+02 </wgt>
<wgt id='111'> +4.9175899e+02 </wgt>
<wgt id='112'> +4.8082490e+02 </wgt>
<wgt id='113'> +4.6449688e+02 </wgt>
<wgt id='114'> +5.0180581e+02 </wgt>
<wgt id='115'> +5.0047101e+02 </wgt>
<wgt id='116'> +5.0642541e+02 </wgt>
<wgt id='117'> +5.0916495e+02 </wgt>
<wgt id='118'> +5.1893077e+02 </wgt>
<wgt id='119'> +4.8651999e+02 </wgt>
<wgt id='120'> +4.9958524e+02 </wgt>
<wgt id='121'> +4.9182796e+02 </wgt>
<wgt id='122'> +4.9865770e+02 </wgt>
<wgt id='123'> +5.1033745e+02 </wgt>
<wgt id='124'> +5.4123511e+02 </wgt>
<wgt id='125'> +5.4276184e+02 </wgt>
<wgt id='126'> +5.2309688e+02 </wgt>
<wgt id='127'> +5.1939562e+02 </wgt>
<wgt id='128'> +4.6686174e+02 </wgt>
<wgt id='129'> +5.7031319e+02 </wgt>
<wgt id='130'> +5.0658276e+02 </wgt>
<wgt id='131'> +5.3836634e+02 </wgt>
<wgt id='132'> +5.0479877e+02 </wgt>
<wgt id='133'> +5.0369178e+02 </wgt>
<wgt id='134'> +4.7776368e+02 </wgt>
<wgt id='135'> +5.1698169e+02 </wgt>
<wgt id='136'> +4.8997348e+02 </wgt>
<wgt id='137'> +4.7637591e+02 </wgt>
<wgt id='138'> +4.6059431e+02 </wgt>
<wgt id='139'> +5.1536133e+02 </wgt>
<wgt id='140'> +5.3375121e+02 </wgt>
<wgt id='141'> +5.0480960e+02 </wgt>
<wgt id='142'> +5.0361153e+02 </wgt>
<wgt id='143'> +5.0319682e+02 </wgt>
<wgt id='144'> +5.0367116e+02 </wgt>
<wgt id='145'> +5.0567390e+02 </wgt>
</rwgt>
</event>
<event>
 4      1 +5.0481800e+02 1.82031300e+02 7.54677100e-03 1.16585200e-01
       21 -1    0    0  501  502 +0.0000000000e+00 +0.0000000000e+00 +9.4621432315e+02 9.4621432315e+02 0.0000000000e+00 0.0000e+00 1.0000e+00
       21 -1    0    0  502  503 -0.0000000000e+00 -0.0000000000e+00 -3.5593110815e+01 3.5593110815e+01 0.0000000000e+00 0.0000e+00 1.0000e+00
        6  1    1    2  501    0 -3.4455026925e+01 -4.4935854135e+01 +5.1766269211e+02 5.4873494756e+02 1.7300000000e+02 0.0000e+00 1.0000e+00
       -6  1    1    2    0  503 +3.4455026925e+01 +4.4935854135e+01 +3.9295852023e+02 4.3307248641e+02 1.7300000000e+02 0.0000e+00 1.0000e+00
<mgrwt>
<rscale>  2 0.18203126E+03</rscale>
<asrwt>0</asrwt>
<pdfrwt beam="1">  1       21 0.14557141E+00 0.18203126E+03</pdfrwt>
<pdfrwt beam="2">  1       21 0.54758639E-02 0.18203126E+03</pdfrwt>
<totfact> 0.74922344E+04</totfact>
</mgrwt>
<rwgt>
<wgt id='1'> +6.5542816e+02 </wgt>
<wgt id='2'> +7.6894597e+02 </wgt>
<wgt id='3'> +5.0481800e+02 </wgt>
<wgt id='4'> +6.5542816e+02 </wgt>
<wgt id='5'> +5.0332027e+02 </wgt>
<wgt id='6'> +6.2107744e+02 </wgt>
<wgt id='7'> +7.3292310e+02 </wgt>
<wgt id='8'> +4.6946458e+02 </wgt>
<wgt id='9'> +6.2107744e+02 </wgt>
<wgt id='10'> +4.6803085e+02 </wgt>
<wgt id='11'> +5.7758214e+02 </wgt>
<wgt id='12'> +6.8844237e+02 </wgt>
<wgt id='13'> +4.3622156e+02 </wgt>
<wgt id='14'> +5.7758214e+02 </wgt>
<wgt id='15'> +4.3489038e+02 </wgt>
<wgt id='16'> +5.3273861e+02 </wgt>
<wgt id='17'> +6.1570396e+02 </wgt>
<wgt id='18'> +4.2429963e+02 </wgt>
<wgt id='19'> +5.3273861e+02 </wgt>
<wgt id='20'> +4.2314679e+02 </wgt>
<wgt id='21'> +5.8686003e+02 </wgt>
<wgt id='22'> +3.9458508e+02 </wgt>
<wgt id='23'> +5.0481800e+02 </wgt>
<wgt id='24'> +3.9347859e+02 </wgt>
<wgt id='25'> +4.6946458e+02 </wgt>
<wgt id='26'> +5.5124380e+02 </wgt>
<wgt id='27'> +3.6664431e+02 </wgt>
<wgt id='28'> +4.6946458e+02 </wgt>
<wgt id='29'> +3.6561704e+02 </wgt>
<wgt id='30'> +4.4776691e+02 </wgt>
<wgt id='31'> +5.0805961e+02 </wgt>
<wgt id='32'> +3.6175447e+02 </wgt>
<wgt id='33'> +4.4776691e+02 </wgt>
<wgt id='34'> +3.6082507e+02 </wgt>
<wgt id='35'> +4.2429963e+02 </wgt>
<wgt id='36'> +4.8425850e+02 </wgt>
<wgt id='37'> +3.3642008e+02 </wgt>
<wgt id='38'> +4.2429963e+02 </wgt>
<wgt id='39'> +3.3552645e+02 </wgt>
<wgt id='40'> +3.9458508e+02 </wgt>
<wgt id='41'> +4.5486910e+02 </wgt>
<wgt id='42'> +3.1259800e+02 </wgt>
<wgt id='43'> +3.9458508e+02 </wgt>
<wgt id='44'> +3.1176840e+02 </wgt>
<wgt id='45'> +5.0481800e+02 </wgt>
<wgt id='46'> +5.1837995e+02 </wgt>
<wgt id='47'> +5.1433055e+02 </wgt>
<wgt id='48'> +5.0513857e+02 </wgt>
<wgt id='49'> +4.8390582e+02 </wgt>
<wgt id='50'> +5.8678883e+02 </wgt>
<wgt id='51'> +4.8516954e+02 </wgt>
<wgt id='52'> +4.9452759e+02 </wgt>
<wgt id='53'> +4.9662097e+02 </wgt>
<wgt id='54'> +5.2418793e+02 </wgt>
<wgt id='55'> +5.2280284e+02 </wgt>
<wgt id='56'> +4.7186201e+02 </wgt>
<wgt id='57'> +5.2477224e+02 </wgt>
<wgt id='58'> +4.7993646e+02 </wgt>
<wgt id='59'> +5.4115640e+02 </wgt>
<wgt id='60'> +5.1333097e+02 </wgt>
<wgt id='61'> +4.4691779e+02 </wgt>
<wgt id='62'> +4.8369703e+02 </wgt>
<wgt id='63'> +5.1787962e+02 </wgt>
<wgt id='64'> +5.0200604e+02 </wgt>
<wgt id='65'> +5.0609725e+02 </wgt>
<wgt id='66'> +5.0177753e+02 </wgt>
<wgt id='67'> +5.0637535e+02 </wgt>
<wgt id='68'> +5.7403113e+02 </wgt>
<wgt id='69'> +5.1666171e+02 </wgt>
<wgt id='70'> +5.1375906e+02 </wgt>
<wgt id='71'> +4.9301572e+02 </wgt>
<wgt id='72'> +4.8373948e+02 </wgt>
<wgt id='73'> +4.7598922e+02 </wgt>
<wgt id='74'> +5.4941424e+02 </wgt>
<wgt id='75'> +5.2403797e+02 </wgt>
<wgt id='76'> +5.1066522e+02 </wgt>
<wgt id='77'> +4.9275709e+02 </wgt>
<wgt id='78'> +4.6065275e+02 </wgt>
<wgt id='79'> +5.1854755e+02 </wgt>
<wgt id='80'> +4.7360269e+02 </wgt>
<wgt id='81'> +5.0584222e+02 </wgt>
<wgt id='82'> +4.8703502e+02 </wgt>
<wgt id='83'> +4.9987532e+02 </wgt>
<wgt id='84'> +5.1376313e+02 </wgt>
<wgt id='85'> +4.8640968e+02 </wgt>
<wgt id='86'> +5.1434204e+02 </wgt>
<wgt id='87'> +5.0575773e+02 </wgt>
<wgt id='88'> +4.9459306e+02 </wgt>
<wgt id='89'> +4.8098509e+02 </wgt>
<wgt id='90'> +5.0059036e+02 </wgt>
<wgt id='91'> +4.8156379e+02 </wgt>
<wgt id='92'> +4.7146889e+02 </wgt>
<wgt id='93'> +5.0654777e+02 </wgt>
<wgt id='94'> +4.7856119e+02 </wgt>
<wgt id='95'> +5.1964270e+02 </wgt>
<wgt id='96'> +5.2675335e+02 </wgt>
<wgt id='97'> +4.8047236e+02 </wgt>
<wgt id='98'> +5.1372072e+02 </wgt>
<wgt id='99'> +4.5807524e+02 </wgt>
<wgt id='100'> +4.3498358e+02 </wgt>
<wgt id='101'> +5.7110706e+02 </wgt>
<wgt id='102'> +5.4304802e+02 </wgt>
<wgt id='103'> +5.1565690e+02 </wgt>
<wgt id='104'> +5.1911546e+02 </wgt>
<wgt id='105'> +5.1966411e+02 </wgt>
<wgt id='106'> +4.7754005e+02 </wgt>
<wgt id='107'> +4.8187140e+02 </wgt>
<wgt id='108'> +4.6108630e+02 </wgt>
<wgt id='109'> +4.9123561e+02 </wgt>
<wgt id='110'> +4.8825958e+02 </wgt>
<wgt id='111'> +4.9355592e+02 </wgt>
<wgt id='112'> +5.0096291e+02 </wgt>
<wgt id='113'> +4.9577339e+02 </wgt>
<wgt id='114'> +5.0853550e+02 </wgt>
<wgt id='115'> +4.6615966e+02 </wgt>
<wgt id='116'> +5.3510300e+02 </wgt>
<wgt id='117'> +4.9293044e+02 </wgt>
<wgt id='118'> +5.2654884e+02 </wgt>
<wgt id='119'> +5.2111454e+02 </wgt>
<wgt id='120'> +4.9910493e+02 </wgt>
<wgt id='121'> +5.0398160e+02 </wgt>
<wgt id='122'> +4.9919556e+02 </wgt>
<wgt id='123'> +4.9592975e+02 </wgt>
<wgt id='124'> +5.6264800e+02 </wgt>
<wgt id='125'> +5.8862833e+02 </wgt>
<wgt id='126'> +5.0687720e+02 </wgt>
<wgt id='127'> +5.0272411e+02 </wgt>
<wgt id='128'> +4.6835045e+02 </wgt>
<wgt id='129'> +5.3979583e+02 </wgt>
<wgt id='130'> +4.8516829e+02 </wgt>
<wgt id='131'> +4.9651837e+02 </wgt>
<wgt id='132'> +5.4847206e+02 </wgt>
<wgt id='133'> +5.3408744e+02 </wgt>
<wgt id='134'> +5.1240479e+02 </wgt>
<wgt id='135'> +4.9828747e+02 </wgt>
<wgt id='136'> +5.6241941e+02 </wgt>
<wgt id='137'> +4.9992108e+02 </wgt>
<wgt id='138'> +4.9178613e+02 </wgt>
<wgt id='139'> +5.2076076e+02 </wgt>
<wgt id='140'> +5.0316500e+02 </wgt>
<wgt id='141'> +5.3403716e+02 </wgt>
<wgt id='142'> +4.2648841e+02 </wgt>
<wgt id='143'> +5.2087743e+02 </wgt>
<wgt id='144'> +4.8090444e+02 </wgt>
<wgt id='145'> +4.8388915e+02 </wgt>
</rwgt>
</event>
<event>
 4      1 +5.0481800e+02 2.11855200e+02 7.54677100e-03 1.14010500e-01
       -2 -1    0    0    0  501 -0.0000000000e+00 +0.0000000000e+00 +6.6419726076e+01 6.6419726076e+01 0.0000000000e+00 0.0000e+00 -1.0000e+00
        2 -1    0    0  502    0 +0.0000000000e+00 -0.0000000000e+00 -7.4057471863e+02 7.4057471863e+02 0.0000000000e+00 0.0000e+00 1.0000e+00
        6  1    1    2  502    0 -3.1513096763e+01 -1.1815485571e+02 -4.5646280095e+02 5.0323049773e+02 1.7300000000e+02 0.0000e+00 -1.0000e+00
       -6  1    1    2    0  501 +3.1513096763e+01 +1.1815485571e+02 -2.1769219160e+02 3.0376394697e+02 1.7300000000e+02 0.0000e+00 1.0000e+00
<mgrwt>
<rscale>  2 0.21185525E+03</rscale>
<asrwt>0</asrwt>
<pdfrwt beam="2">  1        2 0.11393457E+00 0.21185525E+03</pdfrwt>
<pdfrwt beam="1">  1       -2 0.10218420E-01 0.21185525E+03</pdfrwt>
<totfact> 0.24912072E+03</totfact>
</mgrwt>
<rwgt>
<wgt id='1'> +6.0551551e+02 </wgt>
<wgt id='2'> +5.6137663e+02 </wgt>
<wgt id='3'> +5.0481800e+02 </wgt>
<wgt id='4'> +6.0551552e+02 </wgt>
<wgt id='5'> +4.9944561e+02 </wgt>
<wgt id='6'> +6.1631199e+02 </wgt>
<wgt id='7'> +5.6970306e+02 </wgt>
<wgt id='8'> +5.1024955e+02 </wgt>
<wgt id='9'> +6.1631199e+02 </wgt>
<wgt id='10'> +5.0461440e+02 </wgt>
<wgt id='11'> +6.2294315e+02 </wgt>
<wgt id='12'> +5.7449072e+02 </wgt>
<wgt id='13'> +5.1294640e+02 </wgt>
<wgt id='14'> +6.2294315e+02 </wgt>
<wgt id='15'> +5.0712427e+02 </wgt>
<wgt id='16'> +4.9597467e+02 </wgt>
<wgt id='17'> +4.6653764e+02 </wgt>
<wgt id='18'> +4.2592915e+02 </wgt>
<wgt id='19'> +4.9597467e+02 </wgt>
<wgt id='20'> +4.2175911e+02 </wgt>
<wgt id='21'> +4.7345740e+02 </wgt>
<wgt id='22'> +4.3051191e+02 </wgt>
<wgt id='23'> +5.0481800e+02 </wgt>
<wgt id='24'> +4.2612392e+02 </wgt>
<wgt id='25'> +5.1024955e+02 </wgt>
<wgt id='26'> +4.7743623e+02 </wgt>
<wgt id='27'> +4.3278731e+02 </wgt>
<wgt id='28'> +5.1024955e+02 </wgt>
<wgt id='29'> +4.2824339e+02 </wgt>
<wgt id='30'> +4.1846778e+02 </wgt>
<wgt id='31'> +3.9576702e+02 </wgt>
<wgt id='32'> +3.6414024e+02 </wgt>
<wgt id='33'> +4.1846778e+02 </wgt>
<wgt id='34'> +3.6086519e+02 </wgt>
<wgt id='35'> +4.2592915e+02 </wgt>
<wgt id='36'> +4.0163710e+02 </wgt>
<wgt id='37'> +3.6805818e+02 </wgt>
<wgt id='38'> +4.2592915e+02 </wgt>
<wgt id='39'> +3.6459981e+02 </wgt>
<wgt id='40'> +4.3051191e+02 </wgt>
<wgt id='41'> +4.0501237e+02 </wgt>
<wgt id='42'> +3.7000350e+02 </wgt>
<wgt id='43'> +4.3051191e+02 </wgt>
<wgt id='44'> +3.6641326e+02 </wgt>
<wgt id='45'> +5.0481800e+02 </wgt>
<wgt id='46'> +5.0298200e+02 </wgt>
<wgt id='47'> +4.8819338e+02 </wgt>
<wgt id='48'> +4.9708942e+02 </wgt>
<wgt id='49'> +5.0076015e+02 </wgt>
<wgt id='50'> +4.6182878e+02 </wgt>
<wgt id='51'> +5.1652179e+02 </wgt>
<wgt id='52'> +4.9218674e+02 </wgt>
<wgt id='53'> +5.1840200e+02 </wgt>
<wgt id='54'> +4.9472810e+02 </wgt>
<wgt id='55'> +4.8728754e+02 </wgt>
<wgt id='56'> +5.4213735e+02 </wgt>
<wgt id='57'> +4.9713477e+02 </wgt>
<wgt id='58'> +5.1807053e+02 </wgt>
<wgt id='59'> +4.8086850e+02 </wgt>
<wgt id='60'> +5.0394892e+02 </wgt>
<wgt id='61'> +5.5770632e+02 </wgt>
<wgt id='62'> +5.2743215e+02 </wgt>
<wgt id='63'> +5.0604891e+02 </wgt>
<wgt id='64'> +5.0093757e+02 </wgt>
<wgt id='65'> +4.9856942e+02 </wgt>
<wgt id='66'> +5.2834320e+02 </wgt>
<wgt id='67'> +5.1295697e+02 </wgt>
<wgt id='68'> +4.2160034e+02 </wgt>
<wgt id='69'> +4.7438904e+02 </wgt>
<wgt id='70'> +4.8892749e+02 </wgt>
<wgt id='71'> +5.2143250e+02 </wgt>
<wgt id='72'> +5.2608393e+02 </wgt>
<wgt id='73'> +5.1621143e+02 </wgt>
<wgt id='74'> +4.5306050e+02 </wgt>
<wgt id='75'> +4.7610125e+02 </wgt>
<wgt id='76'> +5.2594407e+02 </wgt>
<wgt id='77'> +5.2420797e+02 </wgt>
<wgt id='78'> +5.3381596e+02 </wgt>
<wgt id='79'> +5.0944718e+02 </wgt>
<wgt id='80'> +5.4656355e+02 </wgt>
<wgt id='81'> +5.0551694e+02 </wgt>
<wgt id='82'> +5.0533441e+02 </wgt>
<wgt id='83'> +4.8731546e+02 </wgt>
<wgt id='84'> +5.0222997e+02 </wgt>
<wgt id='85'> +5.0203820e+02 </wgt>
<wgt id='86'> +4.9883469e+02 </wgt>
<wgt id='87'> +5.0826357e+02 </wgt>
<wgt id='88'> +5.0943451e+02 </wgt>
<wgt id='89'> +5.0624436e+02 </wgt>
<wgt id='90'> +5.4217577e+02 </wgt>
<wgt id='91'> +4.8315265e+02 </wgt>
<wgt id='92'> +5.3936650e+02 </wgt>
<wgt id='93'> +4.8916319e+02 </wgt>
<wgt id='94'> +5.0892943e+02 </wgt>
<wgt id='95'> +5.0274853e+02 </wgt>
<wgt id='96'> +4.8921806e+02 </wgt>
<wgt id='97'> +5.2458218e+02 </wgt>
<wgt id='98'> +5.1230329e+02 </wgt>
<wgt id='99'> +5.2662314e+02 </wgt>
<wgt id='100'> +5.5890399e+02 </wgt>
<wgt id='101'> +4.3895739e+02 </wgt>
<wgt id='102'> +4.6711936e+02 </wgt>
<wgt id='103'> +4.8090857e+02 </wgt>
<wgt id='104'> +4.9246989e+02 </wgt>
<wgt id='105'> +5.0096959e+02 </wgt>
<wgt id='106'> +5.3929252e+02 </wgt>
<wgt id='107'> +5.0259622e+02 </wgt>
<wgt id='108'> +5.6386475e+02 </wgt>
<wgt id='109'> +5.3116081e+02 </wgt>
<wgt id='110'> +5.2621023e+02 </wgt>
<wgt id='111'> +5.3058340e+02 </wgt>
<wgt id='112'> +5.2039416e+02 </wgt>
<wgt id='113'> +5.0831043e+02 </wgt>
<wgt id='114'> +5.1178825e+02 </wgt>
<wgt id='115'> +5.3680330e+02 </wgt>
<wgt id='116'> +4.8393986e+02 </wgt>
<wgt id='117'> +5.0611776e+02 </wgt>
<wgt id='118'> +4.6969812e+02 </wgt>
<wgt id='119'> +5.0377975e+02 </wgt>
<wgt id='120'> +5.0279287e+02 </wgt>
<wgt id='121'> +5.0914330e+02 </wgt>
<wgt id='122'> +5.1975219e+02 </wgt>
<wgt id='123'> +5.4163952e+02 </wgt>
<wgt id='124'> +4.6890135e+02 </wgt>
<wgt id='125'> +4.3778405e+02 </wgt>
<wgt id='126'> +4.9883143e+02 </wgt>
<wgt id='127'> +4.9558216e+02 </wgt>
<wgt id='128'> +5.2363416e+02 </wgt>
<wgt id='129'> +4.6899321e+02 </wgt>
<wgt id='130'> +4.9855089e+02 </wgt>
<wgt id='131'> +4.9356375e+02 </wgt>
<wgt id='132'> +4.7008099e+02 </wgt>
<wgt id='133'> +4.8787440e+02 </wgt>
<wgt id='134'> +4.9496665e+02 </wgt>
<wgt id='135'> +4.9834781e+02 </wgt>
<wgt id='136'> +4.7923966e+02 </wgt>
<wgt id='137'> +5.2582697e+02 </wgt>
<wgt id='138'> +5.1625750e+02 </wgt>
<wgt id='139'> +4.8774473e+02 </wgt>
<wgt id='140'> +4.9229407e+02 </wgt>
<wgt id='141'> +4.7908706e+02 </wgt>
<wgt id='142'> +5.6624983e+02 </wgt>
<wgt id='143'> +5.2056333e+02 </wgt>
<wgt id='144'> +5.4182846e+02 </wgt>
<wgt id='145'> +5.1799599e+02 </wgt>
</rwgt>
</event>
<event>
 4      1 +5.0481800e+02 2.41372200e+02 7.54677100e-03 1.11888200e-01
       -2 -1    0    0    0  501 -0.0000000000e+00 +0.0000000000e+00 +1.6563220526e+02 1.6563220526e+02 0.0000000000e+00 0.0000e+00 -1.0000e+00
        2 -1    0    0  502    0 +0.0000000000e+00 -0.0000000000e+00 -7.1554386795e+02 7.1554386795e+02 0.0000000000e+00 0.0000e+00 1.0000e+00
        6  1    1    2  502    0 -1.6216665763e+02 -4.5094542594e+01 -5.8911111317e+02 6.3664153672e+02 1.7300000000e+02 0.0000e+00 1.0000e+00
       -6  1    1    2    0  501 +1.6216665763e+02 +4.5094542594e+01 +3.9199450469e+01 2.4453453649e+02 1.7300000000e+02 0.0000e+00 -1.0000e+00
<mgrwt>
<rscale>  2 0.24137221E+03</rscale>
<asrwt>0</asrwt>
<pdfrwt beam="2">  1        2 0.11008367E+00 0.24137221E+03</pdfrwt>
<pdfrwt beam="1">  1       -2 0.25481877E-01 0.24137221E+03</pdfrwt>
<totfact> 0.56449849E+02</totfact>
</mgrwt>
<rwgt>
<wgt id='1'> +6.1575020e+02 </wgt>
<wgt id='2'> +5.2609257e+02 </wgt>
<wgt id='3'> +5.0481800e+02 </wgt>
<wgt id='4'> +6.1575020e+02 </wgt>
<wgt id='5'> +4.6026958e+02 </wgt>
<wgt id='6'> +6.1197127e+02 </wgt>
<wgt id='7'> +5.2107382e+02 </wgt>
<wgt id='8'> +4.9956508e+02 </wgt>
<wgt id='9'> +6.1197127e+02 </wgt>
<wgt id='10'> +4.5467541e+02 </wgt>
<wgt id='11'> +6.0560336e+02 </wgt>
<wgt id='12'> +5.1432819e+02 </wgt>
<wgt id='13'> +4.9278510e+02 </wgt>
<wgt id='14'> +6.0560336e+02 </wgt>
<wgt id='15'> +4.4792664e+02 </wgt>
<wgt id='16'> +5.0793525e+02 </wgt>
<wgt id='17'> +4.4365461e+02 </wgt>
<wgt id='18'> +4.2701129e+02 </wgt>
<wgt id='19'> +5.0793526e+02 </wgt>
<wgt id='20'> +3.9201790e+02 </wgt>
<wgt id='21'> +4.3942228e+02 </wgt>
<wgt id='22'> +4.2256799e+02 </wgt>
<wgt id='23'> +5.0481800e+02 </wgt>
<wgt id='24'> +3.8725327e+02 </wgt>
<wgt id='25'> +4.9956508e+02 </wgt>
<wgt id='26'> +4.3373369e+02 </wgt>
<wgt id='27'> +4.1683300e+02 </wgt>
<wgt id='28'> +4.9956508e+02 </wgt>
<wgt id='29'> +3.8150525e+02 </wgt>
<wgt id='30'> +4.2964808e+02 </wgt>
<wgt id='31'> +3.7912222e+02 </wgt>
<wgt id='32'> +3.6589650e+02 </wgt>
<wgt id='33'> +4.2964809e+02 </wgt>
<wgt id='34'> +3.3789252e+02 </wgt>
<wgt id='35'> +4.2701129e+02 </wgt>
<wgt id='36'> +3.7550551e+02 </wgt>
<wgt id='37'> +3.6208914e+02 </wgt>
<wgt id='38'> +4.2701129e+02 </wgt>
<wgt id='39'> +3.3378574e+02 </wgt>
<wgt id='40'> +4.2256799e+02 </wgt>
<wgt id='41'> +3.7064436e+02 </wgt>
<wgt id='42'> +3.5717495e+02 </wgt>
<wgt id='43'> +4.2256799e+02 </wgt>
<wgt id='44'> +3.2883134e+02 </wgt>
<wgt id='45'> +5.0481800e+02 </wgt>
<wgt id='46'> +5.1527269e+02 </wgt>
<wgt id='47'> +4.8929536e+02 </wgt>
<wgt id='48'> +4.9079096e+02 </wgt>
<wgt id='49'> +5.0690784e+02 </wgt>
<wgt id='50'> +4.4199548e+02 </wgt>
<wgt id='51'> +5.1141064e+02 </wgt>
<wgt id='52'> +5.0551068e+02 </wgt>
<wgt id='53'> +5.1383483e+02 </wgt>
<wgt id='54'> +4.8865554e+02 </wgt>
<wgt id='55'> +4.7558978e+02 </wgt>
<wgt id='56'> +5.5293736e+02 </wgt>
<wgt id='57'> +4.8744378e+02 </wgt>
<wgt id='58'> +5.1521735e+02 </wgt>
<wgt id='59'> +4.8353580e+02 </wgt>
<wgt id='60'> +5.0557162e+02 </wgt>
<wgt id='61'> +5.5056054e+02 </wgt>
<wgt id='62'> +5.3258177e+02 </wgt>
<wgt id='63'> +5.2541201e+02 </wgt>
<wgt id='64'> +4.9244930e+02 </wgt>
<wgt id='65'> +4.8110507e+02 </wgt>
<wgt id='66'> +5.2804282e+02 </wgt>
<wgt id='67'> +5.2545121e+02 </wgt>
<wgt id='68'> +4.1423379e+02 </wgt>
<wgt id='69'> +4.7386905e+02 </wgt>
<wgt id='70'> +4.9436284e+02 </wgt>
<wgt id='71'> +5.1269600e+02 </wgt>
<wgt id='72'> +5.0662544e+02 </wgt>
<wgt id='73'> +5.1759692e+02 </wgt>
<wgt id='74'> +4.4485148e+02 </wgt>
<wgt id='75'> +4.7659869e+02 </wgt>
<wgt id='76'> +5.1625842e+02 </wgt>
<wgt id='77'> +5.2817125e+02 </wgt>
<wgt id='78'> +5.2132945e+02 </wgt>
<wgt id='79'> +5.0829452e+02 </wgt>
<wgt id='80'> +5.4436363e+02 </wgt>
<wgt id='81'> +5.0886864e+02 </wgt>
<wgt id='82'> +4.9434893e+02 </wgt>
<wgt id='83'> +4.8302860e+02 </wgt>
<wgt id='84'> +5.1102492e+02 </wgt>
<wgt id='85'> +5.0788470e+02 </wgt>
<wgt id='86'> +5.2531894e+02 </wgt>
<wgt id='87'> +5.0884238e+02 </wgt>
<wgt id='88'> +5.0349765e+02 </wgt>
<wgt id='89'> +5.4843954e+02 </wgt>
<wgt id='90'> +5.6251482e+02 </wgt>
<wgt id='91'> +4.7805928e+02 </wgt>
<wgt id='92'> +5.3743543e+02 </wgt>
<wgt id='93'> +4.9901588e+02 </wgt>
<wgt id='94'> +5.2473350e+02 </wgt>
<wgt id='95'> +5.0029185e+02 </wgt>
<wgt id='96'> +4.9131967e+02 </wgt>
<wgt id='97'> +5.2304433e+02 </wgt>
<wgt id='98'> +5.1223193e+02 </wgt>
<wgt id='99'> +5.3359698e+02 </wgt>
<wgt id='100'> +5.4342678e+02 </wgt>
<wgt id='101'> +4.4087095e+02 </wgt>
<wgt id='102'> +4.7333159e+02 </wgt>
<wgt id='103'> +4.9686577e+02 </wgt>
<wgt id='104'> +4.9121225e+02 </wgt>
<wgt id='105'> +4.8961696e+02 </wgt>
<wgt id='106'> +5.3595707e+02 </wgt>
<wgt id='107'> +4.9350569e+02 </wgt>
<wgt id='108'> +5.5699986e+02 </wgt>
<wgt id='109'> +5.3196195e+02 </wgt>
<wgt id='110'> +5.2916661e+02 </wgt>
<wgt id='111'> +5.2043383e+02 </wgt>
<wgt id='112'> +5.0647084e+02 </wgt>
<wgt id='113'> +5.0804353e+02 </wgt>
<wgt id='114'> +5.0234833e+02 </wgt>
<wgt id='115'> +5.2717134e+02 </wgt>
<wgt id='116'> +4.8389233e+02 </wgt>
<wgt id='117'> +5.0570448e+02 </wgt>
<wgt id='118'> +4.7027517e+02 </wgt>
<wgt id='119'> +5.1024206e+02 </wgt>
<wgt id='120'> +5.0042707e+02 </wgt>
<wgt id='121'> +5.0548623e+02 </wgt>
<wgt id='122'> +5.1625230e+02 </wgt>
<wgt id='123'> +5.3736410e+02 </wgt>
<wgt id='124'> +4.7198804e+02 </wgt>
<wgt id='125'> +4.3264793e+02 </wgt>
<wgt id='126'> +5.0726054e+02 </wgt>
<wgt id='127'> +5.0604851e+02 </wgt>
<wgt id='128'> +5.2654759e+02 </wgt>
<wgt id='129'> +4.5686419e+02 </wgt>
<wgt id='130'> +4.9209055e+02 </wgt>
<wgt id='131'> +4.9907115e+02 </wgt>
<wgt id='132'> +4.7307864e+02 </wgt>
<wgt id='133'> +5.2306615e+02 </wgt>
<wgt id='134'> +4.8158382e+02 </wgt>
<wgt id='135'> +4.8494584e+02 </wgt>
<wgt id='136'> +4.7468996e+02 </wgt>
<wgt id='137'> +5.3040678e+02 </wgt>
<wgt id='138'> +5.2386970e+02 </wgt>
<wgt id='139'> +5.1999510e+02 </wgt>
<wgt id='140'> +4.7307551e+02 </wgt>
<wgt id='141'> +4.7299454e+02 </wgt>
<wgt id='142'> +5.5367990e+02 </wgt>
<wgt id='143'> +5.1858602e+02 </wgt>
<wgt id='144'> +5.3880125e+02 </wgt>
<wgt id='145'> +5.2647047e+02 </wgt>
</rwgt>
</event>
<event>
 4      1 +5.0481800e+02 1.73352900e+02 7.54677100e-03 1.17439600e-01
       21 -1    0    0  503  502 +0.0000000000e+00 +0.0000000000e+00 +4.0923645760e+02 4.0923645760e+02 0.0000000000e+00 0.0000e+00 -1.0000e+00
       21 -1    0    0  501  503 -0.0000000000e+00 -0.0000000000e+00 -7.8873697148e+01 7.8873697148e+01 0.0000000000e+00 0.0000e+00 -1.0000e+00
        6  1    1    2  501    0 -2.1775034811e-01 -1.1054308813e+01 +1.0107960560e+02 2.0066970829e+02 1.7300000000e+02 0.0000e+00 -1.0000e+00
       -6  1    1    2    0  502 +2.1775034811e-01 +1.1054308813e+01 +2.2928315485e+02 2.8744044645e+02 1.7300000000e+02 0.0000e+00 -1.0000e+00
<mgrwt>
<rscale>  2 0.17335295E+03</rscale>
<asrwt>0</asrwt>
<pdfrwt beam="1">  1       21 0.62959454E-01 0.17335295E+03</pdfrwt>
<pdfrwt beam="2">  1       21 0.12134415E-01 0.17335295E+03</pdfrwt>
<totfact> 0.13526901E+05</totfact>
</mgrwt>
<rwgt>
<wgt id='1'> +6.4263109e+02 </wgt>
<wgt id='2'> +1.1731301e+03 </wgt>
<wgt id='3'> +5.0481800e+02 </wgt>
<wgt id='4'> +6.4263109e+02 </wgt>
<wgt id='5'> +4.9876808e+02 </wgt>
<wgt id='6'> +6.2253988e+02 </wgt>
<wgt id='7'> +1.1783180e+03 </wgt>
<wgt id='8'> +4.7900606e+02 </wgt>
<wgt id='9'> +6.2253988e+02 </wgt>
<wgt id='10'> +4.7300990e+02 </wgt>
<wgt id='11'> +5.9070867e+02 </wgt>
<wgt id='12'> +1.1591924e+03 </wgt>
<wgt id='13'> +4.5324247e+02 </wgt>
<wgt id='14'> +5.9070867e+02 </wgt>
<wgt id='15'> +4.4754283e+02 </wgt>
<wgt id='16'> +5.2110998e+02 </wgt>
<wgt id='17'> +8.8960437e+02 </wgt>
<wgt id='18'> +4.2362149e+02 </wgt>
<wgt id='19'> +5.2110998e+02 </wgt>
<wgt id='20'> +4.1904164e+02 </wgt>
<wgt id='21'> +8.9353843e+02 </wgt>
<wgt id='22'> +4.0196122e+02 </wgt>
<wgt id='23'> +5.0481800e+02 </wgt>
<wgt id='24'> +3.9740082e+02 </wgt>
<wgt id='25'> +4.7900606e+02 </wgt>
<wgt id='26'> +8.7903520e+02 </wgt>
<wgt id='27'> +3.8034153e+02 </wgt>
<wgt id='28'> +4.7900606e+02 </wgt>
<wgt id='29'> +3.7600458e+02 </wgt>
<wgt id='30'> +4.3729301e+02 </wgt>
<wgt id='31'> +6.9769377e+02 </wgt>
<wgt id='32'> +3.6085178e+02 </wgt>
<wgt id='33'> +4.3729301e+02 </wgt>
<wgt id='34'> +3.5718603e+02 </wgt>
<wgt id='35'> +4.2362149e+02 </wgt>
<wgt id='36'> +7.0077915e+02 </wgt>
<wgt id='37'> +3.4240100e+02 </wgt>
<wgt id='38'> +4.2362149e+02 </wgt>
<wgt id='39'> +3.3873966e+02 </wgt>
<wgt id='40'> +4.0196122e+02 </wgt>
<wgt id='41'> +6.8940464e+02 </wgt>
<wgt id='42'> +3.2398479e+02 </wgt>
<wgt id='43'> +4.0196122e+02 </wgt>
<wgt id='44'> +3.2050176e+02 </wgt>
<wgt id='45'> +5.0481800e+02 </wgt>
<wgt id='46'> +5.0538453e+02 </wgt>
<wgt id='47'> +5.1894371e+02 </wgt>
<wgt id='48'> +5.0516809e+02 </wgt>
<wgt id='49'> +5.0292528e+02 </wgt>
<wgt id='50'> +5.7967052e+02 </wgt>
<wgt id='51'> +4.9515596e+02 </wgt>
<wgt id='52'> +5.0333246e+02 </wgt>
<wgt id='53'> +5.0768702e+02 </wgt>
<wgt id='54'> +5.0812204e+02 </wgt>
<wgt id='55'> +4.6120901e+02 </wgt>
<wgt id='56'> +4.7127256e+02 </wgt>
<wgt id='57'> +4.9625914e+02 </wgt>
<wgt id='58'> +5.0846660e+02 </wgt>
<wgt id='59'> +5.0334960e+02 </wgt>
<wgt id='60'> +4.9063785e+02 </wgt>
<wgt id='61'> +4.8362486e+02 </wgt>
<wgt id='62'> +4.9763126e+02 </wgt>
<wgt id='63'> +5.0540921e+02 </wgt>
<wgt id='64'> +5.0043929e+02 </wgt>
<wgt id='65'> +5.7968370e+02 </wgt>
<wgt id='66'> +4.9333524e+02 </wgt>
<wgt id='67'> +5.0889110e+02 </wgt>
<wgt id='68'> +5.4061483e+02 </wgt>
<wgt id='69'> +4.9086223e+02 </wgt>
<wgt id='70'> +4.9773797e+02 </wgt>
<wgt id='71'> +5.1369953e+02 </wgt>
<wgt id='72'> +4.9633524e+02 </wgt>
<wgt id='73'> +4.9857812e+02 </wgt>
<wgt id='74'> +5.1986022e+02 </wgt>
<wgt id='75'> +5.1402439e+02 </wgt>
<wgt id='76'> +4.9374048e+02 </wgt>
<wgt id='77'> +4.8892271e+02 </wgt>
<wgt id='78'> +5.0187673e+02 </wgt>
<wgt id='79'> +4.8784546e+02 </wgt>
<wgt id='80'> +4.9973979e+02 </wgt>
<wgt id='81'> +4.9692582e+02 </wgt>
<wgt id='82'> +5.1382045e+02 </wgt>
<wgt id='83'> +5.1118315e+02 </wgt>
<wgt id='84'> +5.4645069e+02 </wgt>
<wgt id='85'> +5.2562655e+02 </wgt>
<wgt id='86'> +5.0091262e+02 </wgt>
<wgt id='87'> +5.0522398e+02 </wgt>
<wgt id='88'> +5.0941236e+02 </wgt>
<wgt id='89'> +5.1534598e+02 </wgt>
<wgt id='90'> +5.1202237e+02 </wgt>
<wgt id='91'> +5.3176097e+02 </wgt>
<wgt id='92'> +4.7141356e+02 </wgt>
<wgt id='93'> +4.9691540e+02 </wgt>
<wgt id='94'> +5.0204899e+02 </wgt>
<wgt id='95'> +4.8996202e+02 </wgt>
<wgt id='96'> +5.3822110e+02 </wgt>
<wgt id='97'> +5.1053158e+02 </wgt>
<wgt id='98'> +4.8459167e+02 </wgt>
<wgt id='99'> +4.9018830e+02 </wgt>
<wgt id='100'> +4.9936288e+02 </wgt>
<wgt id='101'> +5.3134024e+02 </wgt>
<wgt id='102'> +4.9368180e+02 </wgt>
<wgt id='103'> +5.4390781e+02 </wgt>
<wgt id='104'> +5.0255726e+02 </wgt>
<wgt id='105'> +5.2528354e+02 </wgt>
<wgt id='106'> +4.6950950e+02 </wgt>
<wgt id='107'> +4.9873994e+02 </wgt>
<wgt id='108'> +4.5626021e+02 </wgt>
<wgt id='109'> +4.7822357e+02 </wgt>
<wgt id='110'> +5.0647230e+02 </wgt>
<wgt id='111'> +4.9323772e+02 </wgt>
<wgt id='112'> +4.8274566e+02 </wgt>
<wgt id='113'> +4.6807555e+02 </wgt>
<wgt id='114'> +5.0369921e+02 </wgt>
<wgt id='115'> +4.9933235e+02 </wgt>
<wgt id='116'> +5.0442960e+02 </wgt>
<wgt id='117'> +5.0817533e+02 </wgt>
<wgt id='118'> +5.1671257e+02 </wgt>
<wgt id='119'> +4.8909618e+02 </wgt>
<wgt id='120'> +4.9877190e+02 </wgt>
<wgt id='121'> +4.9447487e+02 </wgt>
<wgt id='122'> +4.9950148e+02 </wgt>
<wgt id='123'> +5.0826382e+02 </wgt>
<wgt id='124'> +5.3813336e+02 </wgt>
<wgt id='125'> +5.4023050e+02 </wgt>
<wgt id='126'> +5.2041028e+02 </wgt>
<wgt id='127'> +5.1772750e+02 </wgt>
<wgt id='128'> +4.6783978e+02 </wgt>
<wgt id='129'> +5.6658275e+02 </wgt>
<wgt id='130'> +5.0360079e+02 </wgt>
<wgt id='131'> +5.3608705e+02 </wgt>
<wgt id='132'> +5.0698864e+02 </wgt>
<wgt id='133'> +5.0310373e+02 </wgt>
<wgt id='134'> +4.8041347e+02 </wgt>
<wgt id='135'> +5.1622718e+02 </wgt>
<wgt id='136'> +4.9311140e+02 </wgt>
<wgt id='137'> +4.7648880e+02 </wgt>
<wgt id='138'> +4.5940776e+02 </wgt>
<wgt id='139'> +5.1478506e+02 </wgt>
<wgt id='140'> +5.3222610e+02 </wgt>
<wgt id='141'> +5.0422174e+02 </wgt>
<wgt id='142'> +5.0365263e+02 </wgt>
<wgt id='143'> +5.0461783e+02 </wgt>
<wgt id='144'> +5.0541247e+02 </wgt>
<wgt id='145'> +5.0523505e+02 </wgt>
</rwgt>
</event>
<event>
 4      1 +5.0481800e+02 2.31842000e+02 7.54677100e-03 1.12535000e-01
       21 -1    0    0  503  502 +0.0000000000e+00 +0.0000000000e+00 +3.9891639667e+01 3.9891639667e+01 0.0000000000e+00 0.0000e+00 -1.0000e+00
       21 -1    0    0  501  503 -0.0000000000e+00 -0.0000000000e+00 -1.3694305933e+03 1.3694305933e+03 0.0000000000e+00 0.0000e+00 -1.0000e+00
        6  1    1    2  501    0 +1.0142031292e+02 -1.1634281519e+02 -7.5410859289e+02 7.8894264708e+02 1.7300000000e+02 0.0000e+00 -1.0000e+00
       -6  1    1    2    0  502 -1.0142031292e+02 +1.1634281519e+02 -5.7543036078e+02 6.2037958592e+02 1.7300000000e+02 0.0000e+00 -1.0000e+00
<mgrwt>
<rscale>  2 0.23184204E+03</rscale>
<asrwt>0</asrwt>
<pdfrwt beam="1">  1       21 0.61371764E-02 0.23184204E+03</pdfrwt>
<pdfrwt beam="2">  1       21 0.21068159E+00 0.23184204E+03</pdfrwt>
<totfact> 0.21180901E+04</totfact>
</mgrwt>
<rwgt>
<wgt id='1'> +6.7600156e+02 </wgt>
<wgt id='2'> +5.8962092e+02 </wgt>
<wgt id='3'> +5.0481800e+02 </wgt>
<wgt id='4'> +6.7600156e+02 </wgt>
<wgt id='5'> +5.0315243e+02 </wgt>
<wgt id='6'> +6.1325456e+02 </wgt>
<wgt id='7'> +5.3089593e+02 </wgt>
<wgt id='8'> +4.5411118e+02 </wgt>
<wgt id='9'> +6.1325456e+02 </wgt>
<wgt id='10'> +4.5262865e+02 </wgt>
<wgt id='11'> +5.5165575e+02 </wgt>
<wgt id='12'> +4.7823396e+02 </wgt>
<wgt id='13'> +4.0980705e+02 </wgt>
<wgt id='14'> +5.5165575e+02 </wgt>
<wgt id='15'> +4.0848583e+02 </wgt>
<wgt id='16'> +5.5646998e+02 </wgt>
<wgt id='17'> +4.9320584e+02 </wgt>
<wgt id='18'> +4.2666061e+02 </wgt>
<wgt id='19'> +5.5646998e+02 </wgt>
<wgt id='20'> +4.2532346e+02 </wgt>
<wgt id='21'> +4.4408359e+02 </wgt>
<wgt id='22'> +3.8380436e+02 </wgt>
<wgt id='23'> +5.0481800e+02 </wgt>
<wgt id='24'> +3.8261483e+02 </wgt>
<wgt id='25'> +4.5411118e+02 </wgt>
<wgt id='26'> +4.0003292e+02 </wgt>
<wgt id='27'> +3.4635953e+02 </wgt>
<wgt id='28'> +4.5411118e+02 </wgt>
<wgt id='29'> +3.4530014e+02 </wgt>
<wgt id='30'> +4.7031568e+02 </wgt>
<wgt id='31'> +4.1946538e+02 </wgt>
<wgt id='32'> +3.6534092e+02 </wgt>
<wgt id='33'> +4.7031568e+02 </wgt>
<wgt id='34'> +3.6424716e+02 </wgt>
<wgt id='35'> +4.2666061e+02 </wgt>
<wgt id='36'> +3.7768752e+02 </wgt>
<wgt id='37'> +3.2864398e+02 </wgt>
<wgt id='38'> +4.2666061e+02 </wgt>
<wgt id='39'> +3.2767147e+02 </wgt>
<wgt id='40'> +3.8380436e+02 </wgt>
<wgt id='41'> +3.4022298e+02 </wgt>
<wgt id='42'> +2.9658072e+02 </wgt>
<wgt id='43'> +3.8380436e+02 </wgt>
<wgt id='44'> +2.9571516e+02 </wgt>
<wgt id='45'> +5.0481800e+02 </wgt>
<wgt id='46'> +5.1723609e+02 </wgt>
<wgt id='47'> +5.2912654e+02 </wgt>
<wgt id='48'> +5.0333183e+02 </wgt>
<wgt id='49'> +4.6176825e+02 </wgt>
<wgt id='50'> +5.8856635e+02 </wgt>
<wgt id='51'> +4.7401115e+02 </wgt>
<wgt id='52'> +4.6338725e+02 </wgt>
<wgt id='53'> +5.1270563e+02 </wgt>
<wgt id='54'> +5.3748879e+02 </wgt>
<wgt id='55'> +5.7690984e+02 </wgt>
<wgt id='56'> +4.8719078e+02 </wgt>
<wgt id='57'> +5.3855127e+02 </wgt>
<wgt id='58'> +4.5332198e+02 </wgt>
<wgt id='59'> +5.4801529e+02 </wgt>
<wgt id='60'> +5.0147668e+02 </wgt>
<wgt id='61'> +4.3313668e+02 </wgt>
<wgt id='62'> +4.6002884e+02 </wgt>
<wgt id='63'> +5.3490998e+02 </wgt>
<wgt id='64'> +5.0663262e+02 </wgt>
<wgt id='65'> +4.4993646e+02 </wgt>
<wgt id='66'> +5.1404219e+02 </wgt>
<wgt id='67'> +5.0839070e+02 </wgt>
<wgt id='68'> +6.2590761e+02 </wgt>
<wgt id='69'> +5.5406786e+02 </wgt>
<wgt id='70'> +5.5768916e+02 </wgt>
<wgt id='71'> +4.6373877e+02 </wgt>
<wgt id='72'> +4.5687968e+02 </wgt>
<wgt id='73'> +4.5443175e+02 </wgt>
<wgt id='74'> +5.8896935e+02 </wgt>
<wgt id='75'> +5.5971754e+02 </wgt>
<wgt id='76'> +5.2011506e+02 </wgt>
<wgt id='77'> +4.7151997e+02 </wgt>
<wgt id='78'> +4.3097110e+02 </wgt>
<wgt id='79'> +5.4721347e+02 </wgt>
<wgt id='80'> +4.4075403e+02 </wgt>
<wgt id='81'> +5.2949020e+02 </wgt>
<wgt id='82'> +4.9893968e+02 </wgt>
<wgt id='83'> +4.9792398e+02 </wgt>
<wgt id='84'> +4.8641460e+02 </wgt>
<wgt id='85'> +4.4990648e+02 </wgt>
<wgt id='86'> +5.3497935e+02 </wgt>
<wgt id='87'> +4.9467497e+02 </wgt>
<wgt id='88'> +4.9510584e+02 </wgt>
<wgt id='89'> +4.1485632e+02 </wgt>
<wgt id='90'> +4.6143505e+02 </wgt>
<wgt id='91'> +4.3103223e+02 </wgt>
<wgt id='92'> +4.7602870e+02 </wgt>
<wgt id='93'> +5.1228109e+02 </wgt>
<wgt id='94'> +4.6113305e+02 </wgt>
<wgt id='95'> +5.3091236e+02 </wgt>
<wgt id='96'> +5.2750011e+02 </wgt>
<wgt id='97'> +4.5259562e+02 </wgt>
<wgt id='98'> +5.5311057e+02 </wgt>
<wgt id='99'> +4.1755439e+02 </wgt>
<wgt id='100'> +3.7755559e+02 </wgt>
<wgt id='101'> +5.8950729e+02 </wgt>
<wgt id='102'> +5.7094941e+02 </wgt>
<wgt id='103'> +4.7277945e+02 </wgt>
<wgt id='104'> +5.4531950e+02 </wgt>
<wgt id='105'> +5.1633319e+02 </wgt>
<wgt id='106'> +4.9669832e+02 </wgt>
<wgt id='107'> +4.9450230e+02 </wgt>
<wgt id='108'> +4.7581755e+02 </wgt>
<wgt id='109'> +5.0159194e+02 </wgt>
<wgt id='110'> +4.5703989e+02 </wgt>
<wgt id='111'> +4.8868775e+02 </wgt>
<wgt id='112'> +5.2957088e+02 </wgt>
<wgt id='113'> +5.4373477e+02 </wgt>
<wgt id='114'> +5.2490193e+02 </wgt>
<wgt id='115'> +4.6525521e+02 </wgt>
<wgt id='116'> +5.5719395e+02 </wgt>
<wgt id='117'> +4.9668771e+02 </wgt>
<wgt id='118'> +5.1585822e+02 </wgt>
<wgt id='119'> +5.5958568e+02 </wgt>
<wgt id='120'> +5.0473951e+02 </wgt>
<wgt id='121'> +4.9237537e+02 </wgt>
<wgt id='122'> +4.9162897e+02 </wgt>
<wgt id='123'> +4.7613786e+02 </wgt>
<wgt id='124'> +5.6721371e+02 </wgt>
<wgt id='125'> +6.4442690e+02 </wgt>
<wgt id='126'> +4.9092286e+02 </wgt>
<wgt id='127'> +4.7734806e+02 </wgt>
<wgt id='128'> +4.9238733e+02 </wgt>
<wgt id='129'> +5.0747197e+02 </wgt>
<wgt id='130'> +5.0199632e+02 </wgt>
<wgt id='131'> +4.5741228e+02 </wgt>
<wgt id='132'> +5.5012842e+02 </wgt>
<wgt id='133'> +5.5289467e+02 </wgt>
<wgt id='134'> +5.3623653e+02 </wgt>
<wgt id='135'> +4.7970984e+02 </wgt>
<wgt id='136'> +6.0008297e+02 </wgt>
<wgt id='137'> +5.3985175e+02 </wgt>
<wgt id='138'> +5.2223323e+02 </wgt>
<wgt id='139'> +5.2042331e+02 </wgt>
<wgt id='140'> +4.9085713e+02 </wgt>
<wgt id='141'> +5.8531410e+02 </wgt>
<wgt id='142'> +3.3864710e+02 </wgt>
<wgt id='143'> +5.1595803e+02 </wgt>
<wgt id='144'> +4.5486014e+02 </wgt>
<wgt id='145'> +4.6158450e+02 </wgt>
</rwgt>
</event>
<event>
 4      1 +5.0481800e+02 2.27724400e+02 7.54677100e-03 1.12825200e-01
       21 -1    0    0  501  502 +0.0000000000e+00 +0.0000000000e+00 +6.1337133578e+02 6.1337133578e+02 0.0000000000e+00 0.0000e+00 -1.0000e+00
       21 -1    0    0  502  503 -0.0000000000e+00 -0.0000000000e+00 -8.4894242196e+01 8.4894242196e+01 0.0000000000e+00 0.0000e+00 1.0000e+00
        6  1    1    2  501    0 +2.4815243321e+01 -1.4599179792e+02 +2.8658344934e+02 3.6604436179e+02 1.7300000000e+02 0.0000e+00 -1.0000e+00
       -6  1    1    2    0  503 -2.4815243321e+01 +1.4599179792e+02 +2.4189364424e+02 3.3222121619e+02 1.7300000000e+02 0.0000e+00 -1.0000e+00
<mgrwt>
<rscale>  2 0.22772440E+03</rscale>
<asrwt>0</asrwt>
<pdfrwt beam="1">  1       21 0.94364818E-01 0.22772440E+03</pdfrwt>
<pdfrwt beam="2">  1       21 0.13060653E-01 0.22772440E+03</pdfrwt>
<totfact> 0.46617190E+04</totfact>
</mgrwt>
<rwgt>
<wgt id='1'> +6.5215177e+02 </wgt>
<wgt id='2'> +5.6039512e+02 </wgt>
<wgt id='3'> +5.0481800e+02 </wgt>
<wgt id='4'> +6.5215177e+02 </wgt>
<wgt id='5'> +5.0444697e+02 </wgt>
<wgt id='6'> +6.1384053e+02 </wgt>
<wgt id='7'> +5.2185148e+02 </wgt>
<wgt id='8'> +4.6945458e+02 </wgt>
<wgt id='9'> +6.1384053e+02 </wgt>
<wgt id='10'> +4.6911050e+02 </wgt>
<wgt id='11'> +5.7083988e+02 </wgt>
<wgt id='12'> +4.8535262e+02 </wgt>
<wgt id='13'> +4.3673249e+02 </wgt>
<wgt id='14'> +5.7083988e+02 </wgt>
<wgt id='15'> +4.3641338e+02 </wgt>
<wgt id='16'> +5.3632488e+02 </wgt>
<wgt id='17'> +4.7000946e+02 </wgt>
<wgt id='18'> +4.2650939e+02 </wgt>
<wgt id='19'> +5.3632489e+02 </wgt>
<wgt id='20'> +4.2621289e+02 </wgt>
<wgt id='21'> +4.3768249e+02 </wgt>
<wgt id='22'> +3.9663163e+02 </wgt>
<wgt id='23'> +5.0481800e+02 </wgt>
<wgt id='24'> +3.9635671e+02 </wgt>
<wgt id='25'> +4.6945458e+02 </wgt>
<wgt id='26'> +4.0707050e+02 </wgt>
<wgt id='27'> +3.6898547e+02 </wgt>
<wgt id='28'> +4.6945458e+02 </wgt>
<wgt id='29'> +3.6873055e+02 </wgt>
<wgt id='30'> +4.5312885e+02 </wgt>
<wgt id='31'> +4.0025306e+02 </wgt>
<wgt id='32'> +3.6509772e+02 </wgt>
<wgt id='33'> +4.5312885e+02 </wgt>
<wgt id='34'> +3.6485693e+02 </wgt>
<wgt id='35'> +4.2650939e+02 </wgt>
<wgt id='36'> +3.7272390e+02 </wgt>
<wgt id='37'> +3.3952196e+02 </wgt>
<wgt id='38'> +4.2650939e+02 </wgt>
<wgt id='39'> +3.3929873e+02 </wgt>
<wgt id='40'> +3.9663163e+02 </wgt>
<wgt id='41'> +3.4665518e+02 </wgt>
<wgt id='42'> +3.1585647e+02 </wgt>
<wgt id='43'> +3.9663163e+02 </wgt>
<wgt id='44'> +3.1564952e+02 </wgt>
<wgt id='45'> +5.0481800e+02 </wgt>
<wgt id='46'> +5.1383822e+02 </wgt>
<wgt id='47'> +5.2029216e+02 </wgt>
<wgt id='48'> +5.0771949e+02 </wgt>
<wgt id='49'> +4.9678501e+02 </wgt>
<wgt id='50'> +5.9623223e+02 </wgt>
<wgt id='51'> +4.9238129e+02 </wgt>
<wgt id='52'> +5.0276636e+02 </wgt>
<wgt id='53'> +5.0056084e+02 </wgt>
<wgt id='54'> +5.1276021e+02 </wgt>
<wgt id='55'> +4.7751438e+02 </wgt>
<wgt id='56'> +4.6407302e+02 </wgt>
<wgt id='57'> +5.0559371e+02 </wgt>
<wgt id='58'> +4.9544463e+02 </wgt>
<wgt id='59'> +5.2009056e+02 </wgt>
<wgt id='60'> +5.0097430e+02 </wgt>
<wgt id='61'> +4.5151737e+02 </wgt>
<wgt id='62'> +4.9477488e+02 </wgt>
<wgt id='63'> +5.0752290e+02 </wgt>
<wgt id='64'> +4.9645444e+02 </wgt>
<wgt id='65'> +5.6110540e+02 </wgt>
<wgt id='66'> +4.9641224e+02 </wgt>
<wgt id='67'> +5.0793050e+02 </wgt>
<wgt id='68'> +5.5445266e+02 </wgt>
<wgt id='69'> +5.0342417e+02 </wgt>
<wgt id='70'> +4.9973925e+02 </wgt>
<wgt id='71'> +5.0907206e+02 </wgt>
<wgt id='72'> +4.8639863e+02 </wgt>
<wgt id='73'> +4.8938096e+02 </wgt>
<wgt id='74'> +5.3230175e+02 </wgt>
<wgt id='75'> +5.1686289e+02 </wgt>
<wgt id='76'> +4.9832524e+02 </wgt>
<wgt id='77'> +4.9338432e+02 </wgt>
<wgt id='78'> +4.8487597e+02 </wgt>
<wgt id='79'> +4.9831123e+02 </wgt>
<wgt id='80'> +4.9133001e+02 </wgt>
<wgt id='81'> +4.9662832e+02 </wgt>
<wgt id='82'> +5.0011618e+02 </wgt>
<wgt id='83'> +5.1062918e+02 </wgt>
<wgt id='84'> +5.4096984e+02 </wgt>
<wgt id='85'> +5.1400713e+02 </wgt>
<wgt id='86'> +5.0707408e+02 </wgt>
<wgt id='87'> +5.0727832e+02 </wgt>
<wgt id='88'> +5.0743154e+02 </wgt>
<wgt id='89'> +5.0879982e+02 </wgt>
<wgt id='90'> +5.1228496e+02 </wgt>
<wgt id='91'> +5.1683734e+02 </wgt>
<wgt id='92'> +4.6376688e+02 </wgt>
<wgt id='93'> +5.0171614e+02 </wgt>
<wgt id='94'> +4.9189060e+02 </wgt>
<wgt id='95'> +4.9804495e+02 </wgt>
<wgt id='96'> +5.3940074e+02 </wgt>
<wgt id='97'> +4.9981062e+02 </wgt>
<wgt id='98'> +4.9423987e+02 </wgt>
<wgt id='99'> +4.7888013e+02 </wgt>
<wgt id='100'> +4.7299653e+02 </wgt>
<wgt id='101'> +5.5263847e+02 </wgt>
<wgt id='102'> +5.1601687e+02 </wgt>
<wgt id='103'> +5.4047015e+02 </wgt>
<wgt id='104'> +5.0955165e+02 </wgt>
<wgt id='105'> +5.2125261e+02 </wgt>
<wgt id='106'> +4.6384690e+02 </wgt>
<wgt id='107'> +4.8482652e+02 </wgt>
<wgt id='108'> +4.4967023e+02 </wgt>
<wgt id='109'> +4.7733864e+02 </wgt>
<wgt id='110'> +4.9987838e+02 </wgt>
<wgt id='111'> +4.9175381e+02 </wgt>
<wgt id='112'> +4.8141285e+02 </wgt>
<wgt id='113'> +4.7086085e+02 </wgt>
<wgt id='114'> +4.9739763e+02 </wgt>
<wgt id='115'> +4.8277859e+02 </wgt>
<wgt id='116'> +5.1992916e+02 </wgt>
<wgt id='117'> +5.0077631e+02 </wgt>
<wgt id='118'> +5.2631410e+02 </wgt>
<wgt id='119'> +4.9455947e+02 </wgt>
<wgt id='120'> +4.9482516e+02 </wgt>
<wgt id='121'> +4.9545589e+02 </wgt>
<wgt id='122'> +4.9916821e+02 </wgt>
<wgt id='123'> +5.0732439e+02 </wgt>
<wgt id='124'> +5.5414116e+02 </wgt>
<wgt id='125'> +5.6048356e+02 </wgt>
<wgt id='126'> +5.1912904e+02 </wgt>
<wgt id='127'> +5.1622811e+02 </wgt>
<wgt id='128'> +4.6249390e+02 </wgt>
<wgt id='129'> +5.6257555e+02 </wgt>
<wgt id='130'> +5.0097680e+02 </wgt>
<wgt id='131'> +5.2506697e+02 </wgt>
<wgt id='132'> +5.2564601e+02 </wgt>
<wgt id='133'> +5.1679452e+02 </wgt>
<wgt id='134'> +4.9066064e+02 </wgt>
<wgt id='135'> +5.1114415e+02 </wgt>
<wgt id='136'> +5.1795307e+02 </wgt>
<wgt id='137'> +4.8460626e+02 </wgt>
<wgt id='138'> +4.7411806e+02 </wgt>
<wgt id='139'> +5.1872012e+02 </wgt>
<wgt id='140'> +5.2047166e+02 </wgt>
<wgt id='141'> +5.1369027e+02 </wgt>
<wgt id='142'> +4.7754816e+02 </wgt>
<wgt id='143'> +5.1278203e+02 </wgt>
<wgt id='144'> +4.9502971e+02 </wgt>
<wgt id='145'> +5.0051324e+02 </wgt>
</rwgt>
</event>
<event>
 4      1 +5.0481800e+02 2.11547400e+02 7.54677100e-03 1.14034600e-01
       21 -1    0    0  501  502 +0.0000000000e+00 +0.0000000000e+00 +1.7569946063e+03 1.7569946063e+03 0.0000000000e+00 0.0000e+00 -1.0000e+00
       21 -1    0    0  502  503 -0.0000000000e+00 -0.0000000000e+00 -3.0713227880e+01 3.0713227880e+01 0.0000000000e+00 0.0000e+00 -1.0000e+00
        6  1    1    2  501    0 -1.1075820327e+02 +5.0556278422e+01 +1.2324276309e+03 1.2504519912e+03 1.7300000000e+02 0.0000e+00 -1.0000e+00
       -6  1    1    2    0  503 +1.1075820327e+02 -5.0556278422e+01 +4.9385374753e+02 5.3725584300e+02 1.7300000000e+02 0.0000e+00 -1.0000e+00
<mgrwt>
<rscale>  2 0.21154743E+03</rscale>
<asrwt>0</asrwt>
<pdfrwt beam="1">  1       21 0.27030678E+00 0.21154743E+03</pdfrwt>
<pdfrwt beam="2">  1       21 0.47251134E-02 0.21154743E+03</pdfrwt>
<totfact> 0.14725566E+04</totfact>
</mgrwt>
<rwgt>
<wgt id='1'> +6.9563216e+02 </wgt>
<wgt id='2'> +6.4066862e+02 </wgt>
<wgt id='3'> +5.0481800e+02 </wgt>
<wgt id='4'> +6.9563215e+02 </wgt>
<wgt id='5'> +4.8426648e+02 </wgt>
<wgt id='6'> +6.1636283e+02 </wgt>
<wgt id='7'> +5.6563953e+02 </wgt>
<wgt id='8'> +4.4366590e+02 </wgt>
<wgt id='9'> +6.1636283e+02 </wgt>
<wgt id='10'> +4.2599679e+02 </wgt>
<wgt id='11'> +5.4169854e+02 </wgt>
<wgt id='12'> +4.9790763e+02 </wgt>
<wgt id='13'> +3.9227462e+02 </wgt>
<wgt id='14'> +5.4169853e+02 </wgt>
<wgt id='15'> +3.7695332e+02 </wgt>
<wgt id='16'> +5.6974174e+02 </wgt>
<wgt id='17'> +5.2961428e+02 </wgt>
<wgt id='18'> +4.2591719e+02 </wgt>
<wgt id='19'> +5.6974174e+02 </wgt>
<wgt id='20'> +4.0930732e+02 </wgt>
<wgt id='21'> +4.6759083e+02 </wgt>
<wgt id='22'> +3.7432289e+02 </wgt>
<wgt id='23'> +5.0481800e+02 </wgt>
<wgt id='24'> +3.6005715e+02 </wgt>
<wgt id='25'> +4.4366590e+02 </wgt>
<wgt id='26'> +4.1159967e+02 </wgt>
<wgt id='27'> +3.3096384e+02 </wgt>
<wgt id='28'> +4.4366590e+02 </wgt>
<wgt id='29'> +3.1860507e+02 </wgt>
<wgt id='30'> +4.8069365e+02 </wgt>
<wgt id='31'> +4.4835578e+02 </wgt>
<wgt id='32'> +3.6412063e+02 </wgt>
<wgt id='33'> +4.8069364e+02 </wgt>
<wgt id='34'> +3.5049364e+02 </wgt>
<wgt id='35'> +4.2591719e+02 </wgt>
<wgt id='36'> +3.9584856e+02 </wgt>
<wgt id='37'> +3.2001218e+02 </wgt>
<wgt id='38'> +4.2591719e+02 </wgt>
<wgt id='39'> +3.0832026e+02 </wgt>
<wgt id='40'> +3.7432290e+02 </wgt>
<wgt id='41'> +3.4844810e+02 </wgt>
<wgt id='42'> +2.8294411e+02 </wgt>
<wgt id='43'> +3.7432289e+02 </wgt>
<wgt id='44'> +2.7282446e+02 </wgt>
<wgt id='45'> +5.0481800e+02 </wgt>
<wgt id='46'> +5.1279916e+02 </wgt>
<wgt id='47'> +5.6302844e+02 </wgt>
<wgt id='48'> +5.0431737e+02 </wgt>
<wgt id='49'> +4.4657184e+02 </wgt>
<wgt id='50'> +5.9010172e+02 </wgt>
<wgt id='51'> +4.7229954e+02 </wgt>
<wgt id='52'> +4.2855298e+02 </wgt>
<wgt id='53'> +5.3878726e+02 </wgt>
<wgt id='54'> +5.4056958e+02 </wgt>
<wgt id='55'> +6.2002733e+02 </wgt>
<wgt id='56'> +4.9518036e+02 </wgt>
<wgt id='57'> +5.4662862e+02 </wgt>
<wgt id='58'> +4.3261323e+02 </wgt>
<wgt id='59'> +5.4741469e+02 </wgt>
<wgt id='60'> +4.8985498e+02 </wgt>
<wgt id='61'> +3.9951150e+02 </wgt>
<wgt id='62'> +4.3953340e+02 </wgt>
<wgt id='63'> +5.4086818e+02 </wgt>
<wgt id='64'> +5.0863039e+02 </wgt>
<wgt id='65'> +4.0159184e+02 </wgt>
<wgt id='66'> +5.2318912e+02 </wgt>
<wgt id='67'> +5.0445650e+02 </wgt>
<wgt id='68'> +6.9446128e+02 </wgt>
<wgt id='69'> +5.9117107e+02 </wgt>
<wgt id='70'> +6.2044812e+02 </wgt>
<wgt id='71'> +4.3769497e+02 </wgt>
<wgt id='72'> +4.2716998e+02 </wgt>
<wgt id='73'> +4.4295954e+02 </wgt>
<wgt id='74'> +6.3841216e+02 </wgt>
<wgt id='75'> +6.0964025e+02 </wgt>
<wgt id='76'> +5.1996562e+02 </wgt>
<wgt id='77'> +4.4700229e+02 </wgt>
<wgt id='78'> +4.1084689e+02 </wgt>
<wgt id='79'> +5.7516302e+02 </wgt>
<wgt id='80'> +4.0669556e+02 </wgt>
<wgt id='81'> +5.5317215e+02 </wgt>
<wgt id='82'> +5.0343918e+02 </wgt>
<wgt id='83'> +5.0079309e+02 </wgt>
<wgt id='84'> +4.5633507e+02 </wgt>
<wgt id='85'> +4.2333702e+02 </wgt>
<wgt id='86'> +5.5705707e+02 </wgt>
<wgt id='87'> +4.8063992e+02 </wgt>
<wgt id='88'> +5.1348993e+02 </wgt>
<wgt id='89'> +3.4940837e+02 </wgt>
<wgt id='90'> +4.2336666e+02 </wgt>
<wgt id='91'> +3.8940668e+02 </wgt>
<wgt id='92'> +4.7846526e+02 </wgt>
<wgt id='93'> +5.2380503e+02 </wgt>
<wgt id='94'> +4.4719424e+02 </wgt>
<wgt id='95'> +5.2856075e+02 </wgt>
<wgt id='96'> +5.2038913e+02 </wgt>
<wgt id='97'> +4.2935875e+02 </wgt>
<wgt id='98'> +5.9846506e+02 </wgt>
<wgt id='99'> +3.8726457e+02 </wgt>
<wgt id='100'> +3.3535956e+02 </wgt>
<wgt id='101'> +6.0338796e+02 </wgt>
<wgt id='102'> +5.9081720e+02 </wgt>
<wgt id='103'> +4.3611650e+02 </wgt>
<wgt id='104'> +5.6553157e+02 </wgt>
<wgt id='105'> +5.1409055e+02 </wgt>
<wgt id='106'> +5.1495880e+02 </wgt>
<wgt id='107'> +5.1639261e+02 </wgt>
<wgt id='108'> +4.7670529e+02 </wgt>
<wgt id='109'> +5.0706792e+02 </wgt>
<wgt id='110'> +4.2269810e+02 </wgt>
<wgt id='111'> +4.7845977e+02 </wgt>
<wgt id='112'> +5.3349641e+02 </wgt>
<wgt id='113'> +5.9890747e+02 </wgt>
<wgt id='114'> +5.1107967e+02 </wgt>
<wgt id='115'> +4.7408166e+02 </wgt>
<wgt id='116'> +5.7521342e+02 </wgt>
<wgt id='117'> +5.0885618e+02 </wgt>
<wgt id='118'> +5.0285467e+02 </wgt>
<wgt id='119'> +5.7006280e+02 </wgt>
<wgt id='120'> +4.9980814e+02 </wgt>
<wgt id='121'> +4.7051060e+02 </wgt>
<wgt id='122'> +4.8096916e+02 </wgt>
<wgt id='123'> +4.5402629e+02 </wgt>
<wgt id='124'> +5.6450426e+02 </wgt>
<wgt id='125'> +7.0279408e+02 </wgt>
<wgt id='126'> +4.7934692e+02 </wgt>
<wgt id='127'> +4.5663228e+02 </wgt>
<wgt id='128'> +5.0669977e+02 </wgt>
<wgt id='129'> +4.7953026e+02 </wgt>
<wgt id='130'> +5.1365006e+02 </wgt>
<wgt id='131'> +4.3005104e+02 </wgt>
<wgt id='132'> +5.4138599e+02 </wgt>
<wgt id='133'> +5.6414556e+02 </wgt>
<wgt id='134'> +5.5958518e+02 </wgt>
<wgt id='135'> +4.6903839e+02 </wgt>
<wgt id='136'> +6.2145773e+02 </wgt>
<wgt id='137'> +5.8793541e+02 </wgt>
<wgt id='138'> +5.5036805e+02 </wgt>
<wgt id='139'> +5.2406786e+02 </wgt>
<wgt id='140'> +4.8470064e+02 </wgt>
<wgt id='141'> +6.4256254e+02 </wgt>
<wgt id='142'> +2.5970048e+02 </wgt>
<wgt id='143'> +5.1055698e+02 </wgt>
<wgt id='144'> +4.3526002e+02 </wgt>
<wgt id='145'> +4.5137072e+02 </wgt>
</rwgt>
</event>
<event>
 4      1 +5.0481800e+02 2.12647900e+02 7.54677100e-03 1.13948600e-01
       21 -1    0    0  501  502 +0.0000000000e+00 +0.0000000000e+00 +2.3160573209e+03 2.3160573209e+03 0.0000000000e+00 0.0000e+00 1.0000e+00
       21 -1    0    0  502  503 -0.0000000000e+00 -0.0000000000e+00 -2.0324373155e+01 2.0324373155e+01 0.0000000000e+00 0.0000e+00 -1.0000e+00
        6  1    1    2  501    0 +7.5016419308e+01 +9.8298949126e+01 +1.3796590516e+03 1.3959506600e+03 1.7300000000e+02 0.0000e+00 1.0000e+00
       -6  1    1    2    0  503 -7.5016419308e+01 -9.8298949126e+01 +9.1607389616e+02 9.4043103404e+02 1.7300000000e+02 0.0000e+00 -1.0000e+00
<mgrwt>
<rscale>  2 0.21264794E+03</rscale>
<asrwt>0</asrwt>
<pdfrwt beam="1">  1       21 0.35631630E+00 0.21264794E+03</pdfrwt>
<pdfrwt beam="2">  1       21 0.31268285E-02 0.21264794E+03</pdfrwt>
<totfact> 0.92618824E+03</totfact>
</mgrwt>
<rwgt>
<wgt id='1'> +7.2123704e+02 </wgt>
<wgt id='2'> +6.6121790e+02 </wgt>
<wgt id='3'> +5.0481800e+02 </wgt>
<wgt id='4'> +7.2123704e+02 </wgt>
<wgt id='5'> +4.9984355e+02 </wgt>
<wgt id='6'> +6.1618140e+02 </wgt>
<wgt id='7'> +5.6384508e+02 </wgt>
<wgt id='8'> +4.3034633e+02 </wgt>
<wgt id='9'> +6.1618140e+02 </wgt>
<wgt id='10'> +4.2625430e+02 </wgt>
<wgt id='11'> +5.2528120e+02 </wgt>
<wgt id='12'> +4.8196370e+02 </wgt>
<wgt id='13'> +3.7082302e+02 </wgt>
<wgt id='14'> +5.2528120e+02 </wgt>
<wgt id='15'> +3.6740483e+02 </wgt>
<wgt id='16'> +5.9088678e+02 </wgt>
<wgt id='17'> +5.4647641e+02 </wgt>
<wgt id='18'> +4.2595971e+02 </wgt>
<wgt id='19'> +5.9088678e+02 </wgt>
<wgt id='20'> +4.2192225e+02 </wgt>
<wgt id='21'> +4.6600074e+02 </wgt>
<wgt id='22'> +3.6312136e+02 </wgt>
<wgt id='23'> +5.0481800e+02 </wgt>
<wgt id='24'> +3.5980493e+02 </wgt>
<wgt id='25'> +4.3034633e+02 </wgt>
<wgt id='26'> +3.9832828e+02 </wgt>
<wgt id='27'> +3.1289626e+02 </wgt>
<wgt id='28'> +4.3034633e+02 </wgt>
<wgt id='29'> +3.1012959e+02 </wgt>
<wgt id='30'> +4.9858358e+02 </wgt>
<wgt id='31'> +4.6258965e+02 </wgt>
<wgt id='32'> +3.6419045e+02 </wgt>
<wgt id='33'> +4.9858357e+02 </wgt>
<wgt id='34'> +3.6086601e+02 </wgt>
<wgt id='35'> +4.2595971e+02 </wgt>
<wgt id='36'> +3.9446739e+02 </wgt>
<wgt id='37'> +3.1046441e+02 </wgt>
<wgt id='38'> +4.2595971e+02 </wgt>
<wgt id='39'> +3.0773767e+02 </wgt>
<wgt id='40'> +3.6312136e+02 </wgt>
<wgt id='41'> +3.3718298e+02 </wgt>
<wgt id='42'> +2.6752255e+02 </wgt>
<wgt id='43'> +3.6312136e+02 </wgt>
<wgt id='44'> +2.6525083e+02 </wgt>
<wgt id='45'> +5.0481800e+02 </wgt>
<wgt id='46'> +5.0838482e+02 </wgt>
<wgt id='47'> +6.2839008e+02 </wgt>
<wgt id='48'> +5.0396938e+02 </wgt>
<wgt id='49'> +4.3206954e+02 </wgt>
<wgt id='50'> +6.2695105e+02 </wgt>
<wgt id='51'> +4.9980000e+02 </wgt>
<wgt id='52'> +3.9032782e+02 </wgt>
<wgt id='53'> +5.8856557e+02 </wgt>
<wgt id='54'> +5.2982299e+02 </wgt>
<wgt id='55'> +6.5150438e+02 </wgt>
<wgt id='56'> +4.8860813e+02 </wgt>
<wgt id='57'> +5.6906591e+02 </wgt>
<wgt id='58'> +4.0742232e+02 </wgt>
<wgt id='59'> +5.5538135e+02 </wgt>
<wgt id='60'> +4.8783485e+02 </wgt>
<wgt id='61'> +3.7332331e+02 </wgt>
<wgt id='62'> +4.2269605e+02 </wgt>
<wgt id='63'> +5.3874552e+02 </wgt>
<wgt id='64'> +5.0839961e+02 </wgt>
<wgt id='65'> +3.5913134e+02 </wgt>
<wgt id='66'> +5.1619183e+02 </wgt>
<wgt id='67'> +4.7755258e+02 </wgt>
<wgt id='68'> +8.1975039e+02 </wgt>
<wgt id='69'> +6.1114073e+02 </wgt>
<wgt id='70'> +7.3465101e+02 </wgt>
<wgt id='71'> +4.2022351e+02 </wgt>
<wgt id='72'> +3.9186100e+02 </wgt>
<wgt id='73'> +4.1521283e+02 </wgt>
<wgt id='74'> +7.2188463e+02 </wgt>
<wgt id='75'> +6.6889310e+02 </wgt>
<wgt id='76'> +4.9729476e+02 </wgt>
<wgt id='77'> +4.1520805e+02 </wgt>
<wgt id='78'> +4.0297180e+02 </wgt>
<wgt id='79'> +5.8872163e+02 </wgt>
<wgt id='80'> +3.4339250e+02 </wgt>
<wgt id='81'> +5.6841803e+02 </wgt>
<wgt id='82'> +4.8187767e+02 </wgt>
<wgt id='83'> +5.0397708e+02 </wgt>
<wgt id='84'> +4.0083441e+02 </wgt>
<wgt id='85'> +4.1061836e+02 </wgt>
<wgt id='86'> +5.5566238e+02 </wgt>
<wgt id='87'> +4.5718952e+02 </wgt>
<wgt id='88'> +5.6451748e+02 </wgt>
<wgt id='89'> +2.7681815e+02 </wgt>
<wgt id='90'> +3.8719231e+02 </wgt>
<wgt id='91'> +3.5112124e+02 </wgt>
<wgt id='92'> +4.6685434e+02 </wgt>
<wgt id='93'> +5.5324335e+02 </wgt>
<wgt id='94'> +4.0568040e+02 </wgt>
<wgt id='95'> +5.2137417e+02 </wgt>
<wgt id='96'> +4.6903287e+02 </wgt>
<wgt id='97'> +4.0853240e+02 </wgt>
<wgt id='98'> +6.6129477e+02 </wgt>
<wgt id='99'> +3.6388024e+02 </wgt>
<wgt id='100'> +3.0025625e+02 </wgt>
<wgt id='101'> +6.4177892e+02 </wgt>
<wgt id='102'> +6.2710081e+02 </wgt>
<wgt id='103'> +4.0850918e+02 </wgt>
<wgt id='104'> +5.7424626e+02 </wgt>
<wgt id='105'> +5.2376445e+02 </wgt>
<wgt id='106'> +5.2529163e+02 </wgt>
<wgt id='107'> +5.4124152e+02 </wgt>
<wgt id='108'> +4.5598978e+02 </wgt>
<wgt id='109'> +5.2098255e+02 </wgt>
<wgt id='110'> +3.5908939e+02 </wgt>
<wgt id='111'> +4.6532005e+02 </wgt>
<wgt id='112'> +5.1764183e+02 </wgt>
<wgt id='113'> +6.5996736e+02 </wgt>
<wgt id='114'> +4.0795053e+02 </wgt>
<wgt id='115'> +4.9125603e+02 </wgt>
<wgt id='116'> +6.0324568e+02 </wgt>
<wgt id='117'> +5.3699589e+02 </wgt>
<wgt id='118'> +4.9917871e+02 </wgt>
<wgt id='119'> +5.3130523e+02 </wgt>
<wgt id='120'> +4.7537289e+02 </wgt>
<wgt id='121'> +4.4696525e+02 </wgt>
<wgt id='122'> +4.5730302e+02 </wgt>
<wgt id='123'> +4.2947014e+02 </wgt>
<wgt id='124'> +5.6931761e+02 </wgt>
<wgt id='125'> +8.0120414e+02 </wgt>
<wgt id='126'> +4.6989264e+02 </wgt>
<wgt id='127'> +4.4808869e+02 </wgt>
<wgt id='128'> +5.0567198e+02 </wgt>
<wgt id='129'> +4.6067543e+02 </wgt>
<wgt id='130'> +4.5355962e+02 </wgt>
<wgt id='131'> +4.1554413e+02 </wgt>
<wgt id='132'> +5.3133022e+02 </wgt>
<wgt id='133'> +5.6128848e+02 </wgt>
<wgt id='134'> +6.0257923e+02 </wgt>
<wgt id='135'> +4.7168592e+02 </wgt>
<wgt id='136'> +6.4800394e+02 </wgt>
<wgt id='137'> +6.1890767e+02 </wgt>
<wgt id='138'> +6.0311516e+02 </wgt>
<wgt id='139'> +5.4113088e+02 </wgt>
<wgt id='140'> +4.7109987e+02 </wgt>
<wgt id='141'> +7.2723015e+02 </wgt>
<wgt id='142'> +2.0486212e+02 </wgt>
<wgt id='143'> +5.2106128e+02 </wgt>
<wgt id='144'> +4.2022454e+02 </wgt>
<wgt id='145'> +4.3659987e+02 </wgt>
</rwgt>
</event>
<event>
 4      1 +5.0481800e+02 1.96051900e+02 7.54677100e-03 1.15311300e-01
       21 -1    0    0  501  502 +0.0000000000e+00 +0.0000000000e+00 +2.0352983307e+03 2.0352983307e+03 0.0000000000e+00 0.0000e+00 -1.0000e+00
       21 -1    0    0  502  503 -0.0000000000e+00 -0.0000000000e+00 -1.9874550848e+01 1.9874550848e+01 0.0000000000e+00 0.0000e+00 -1.0000e+00
        6  1    1    2  501    0 +9.2177931373e+01 -3.2497565894e+00 +1.2370195841e+03 1.2524590945e+03 1.7300000000e+02 0.0000e+00 1.0000e+00
       -6  1    1    2    0  503 -9.2177931373e+01 +3.2497565894e+00 +7.7840419568e+02 8.0271378698e+02 1.7300000000e+02 0.0000e+00 1.0000e+00
<mgrwt>
<rscale>  2 0.19605186E+03</rscale>
<asrwt>0</asrwt>
<pdfrwt beam="1">  1       21 0.31312265E+00 0.19605186E+03</pdfrwt>
<pdfrwt beam="2">  1       21 0.30576248E-02 0.19605186E+03</pdfrwt>
<totfact> 0.17522170E+04</totfact>
</mgrwt>
<rwgt>
<wgt id='1'> +7.0637297e+02 </wgt>
<wgt id='2'> +7.2226915e+02 </wgt>
<wgt id='3'> +5.0481800e+02 </wgt>
<wgt id='4'> +7.0637297e+02 </wgt>
<wgt id='5'> +4.9884782e+02 </wgt>
<wgt id='6'> +6.1893463e+02 </wgt>
<wgt id='7'> +6.3319385e+02 </wgt>
<wgt id='8'> +4.3875768e+02 </wgt>
<wgt id='9'> +6.1893463e+02 </wgt>
<wgt id='10'> +4.3365687e+02 </wgt>
<wgt id='11'> +5.3794104e+02 </wgt>
<wgt id='12'> +5.5021800e+02 </wgt>
<wgt id='13'> +3.8426278e+02 </wgt>
<wgt id='14'> +5.3794104e+02 </wgt>
<wgt id='15'> +3.7990238e+02 </wgt>
<wgt id='16'> +5.7613482e+02 </wgt>
<wgt id='17'> +5.8784963e+02 </wgt>
<wgt id='18'> +4.2520680e+02 </wgt>
<wgt id='19'> +5.7613482e+02 </wgt>
<wgt id='20'> +4.2043787e+02 </wgt>
<wgt id='21'> +5.1535188e+02 </wgt>
<wgt id='22'> +3.6956437e+02 </wgt>
<wgt id='23'> +5.0481800e+02 </wgt>
<wgt id='24'> +3.6549376e+02 </wgt>
<wgt id='25'> +4.3875768e+02 </wgt>
<wgt id='26'> +4.4781844e+02 </wgt>
<wgt id='27'> +3.2366348e+02 </wgt>
<wgt id='28'> +4.3875768e+02 </wgt>
<wgt id='29'> +3.2018852e+02 </wgt>
<wgt id='30'> +4.8527676e+02 </wgt>
<wgt id='31'> +4.9453529e+02 </wgt>
<wgt id='32'> +3.6301671e+02 </wgt>
<wgt id='33'> +4.8527676e+02 </wgt>
<wgt id='34'> +3.5911086e+02 </wgt>
<wgt id='35'> +4.2520680e+02 </wgt>
<wgt id='36'> +4.3354573e+02 </wgt>
<wgt id='37'> +3.1551245e+02 </wgt>
<wgt id='38'> +4.2520680e+02 </wgt>
<wgt id='39'> +3.1218116e+02 </wgt>
<wgt id='40'> +3.6956437e+02 </wgt>
<wgt id='41'> +3.7673244e+02 </wgt>
<wgt id='42'> +2.7632495e+02 </wgt>
<wgt id='43'> +3.6956437e+02 </wgt>
<wgt id='44'> +2.7348435e+02 </wgt>
<wgt id='45'> +5.0481800e+02 </wgt>
<wgt id='46'> +5.1031738e+02 </wgt>
<wgt id='47'> +5.9733265e+02 </wgt>
<wgt id='48'> +5.0635643e+02 </wgt>
<wgt id='49'> +4.3953784e+02 </wgt>
<wgt id='50'> +5.9812316e+02 </wgt>
<wgt id='51'> +4.8065858e+02 </wgt>
<wgt id='52'> +4.0598153e+02 </wgt>
<wgt id='53'> +5.6256892e+02 </wgt>
<wgt id='54'> +5.3722549e+02 </wgt>
<wgt id='55'> +6.4384493e+02 </wgt>
<wgt id='56'> +4.9547515e+02 </wgt>
<wgt id='57'> +5.5505534e+02 </wgt>
<wgt id='58'> +4.1908186e+02 </wgt>
<wgt id='59'> +5.4925227e+02 </wgt>
<wgt id='60'> +4.8732628e+02 </wgt>
<wgt id='61'> +3.8177794e+02 </wgt>
<wgt id='62'> +4.2895504e+02 </wgt>
<wgt id='63'> +5.4018763e+02 </wgt>
<wgt id='64'> +5.0943795e+02 </wgt>
<wgt id='65'> +3.7273080e+02 </wgt>
<wgt id='66'> +5.2405131e+02 </wgt>
<wgt id='67'> +4.9214076e+02 </wgt>
<wgt id='68'> +7.5566415e+02 </wgt>
<wgt id='69'> +6.0877997e+02 </wgt>
<wgt id='70'> +6.7726810e+02 </wgt>
<wgt id='71'> +4.2377702e+02 </wgt>
<wgt id='72'> +4.0704380e+02 </wgt>
<wgt id='73'> +4.3315551e+02 </wgt>
<wgt id='74'> +6.8058544e+02 </wgt>
<wgt id='75'> +6.4814436e+02 </wgt>
<wgt id='76'> +5.1298820e+02 </wgt>
<wgt id='77'> +4.3066774e+02 </wgt>
<wgt id='78'> +4.0252896e+02 </wgt>
<wgt id='79'> +5.9066789e+02 </wgt>
<wgt id='80'> +3.7794403e+02 </wgt>
<wgt id='81'> +5.6488330e+02 </wgt>
<wgt id='82'> +4.9572144e+02 </wgt>
<wgt id='83'> +5.0221089e+02 </wgt>
<wgt id='84'> +4.2802065e+02 </wgt>
<wgt id='85'> +4.1172997e+02 </wgt>
<wgt id='86'> +5.6656915e+02 </wgt>
<wgt id='87'> +4.6967768e+02 </wgt>
<wgt id='88'> +5.3838021e+02 </wgt>
<wgt id='89'> +3.0747853e+02 </wgt>
<wgt id='90'> +4.0119544e+02 </wgt>
<wgt id='91'> +3.6534861e+02 </wgt>
<wgt id='92'> +4.7602094e+02 </wgt>
<wgt id='93'> +5.3823073e+02 </wgt>
<wgt id='94'> +4.3182893e+02 </wgt>
<wgt id='95'> +5.2416952e+02 </wgt>
<wgt id='96'> +5.0053263e+02 </wgt>
<wgt id='97'> +4.1591465e+02 </wgt>
<wgt id='98'> +6.3320040e+02 </wgt>
<wgt id='99'> +3.7268529e+02 </wgt>
<wgt id='100'> +3.1294063e+02 </wgt>
<wgt id='101'> +6.1802649e+02 </wgt>
<wgt id='102'> +6.0745320e+02 </wgt>
<wgt id='103'> +4.1652139e+02 </wgt>
<wgt id='104'> +5.7378221e+02 </wgt>
<wgt id='105'> +5.1523993e+02 </wgt>
<wgt id='106'> +5.2520856e+02 </wgt>
<wgt id='107'> +5.3197765e+02 </wgt>
<wgt id='108'> +4.6718754e+02 </wgt>
<wgt id='109'> +5.1261799e+02 </wgt>
<wgt id='110'> +3.9379378e+02 </wgt>
<wgt id='111'> +4.7049948e+02 </wgt>
<wgt id='112'> +5.2576291e+02 </wgt>
<wgt id='113'> +6.3822408e+02 </wgt>
<wgt id='114'> +4.7008543e+02 </wgt>
<wgt id='115'> +4.8388180e+02 </wgt>
<wgt id='116'> +5.8886315e+02 </wgt>
<wgt id='117'> +5.2187083e+02 </wgt>
<wgt id='118'> +4.9754989e+02 </wgt>
<wgt id='119'> +5.5430537e+02 </wgt>
<wgt id='120'> +4.9059598e+02 </wgt>
<wgt id='121'> +4.5588303e+02 </wgt>
<wgt id='122'> +4.7119312e+02 </wgt>
<wgt id='123'> +4.3943524e+02 </wgt>
<wgt id='124'> +5.6349235e+02 </wgt>
<wgt id='125'> +7.4937872e+02 </wgt>
<wgt id='126'> +4.7285837e+02 </wgt>
<wgt id='127'> +4.4784427e+02 </wgt>
<wgt id='128'> +5.0834066e+02 </wgt>
<wgt id='129'> +4.6405819e+02 </wgt>
<wgt id='130'> +4.8262383e+02 </wgt>
<wgt id='131'> +4.1839986e+02 </wgt>
<wgt id='132'> +5.3526056e+02 </wgt>
<wgt id='133'> +5.6785745e+02 </wgt>
<wgt id='134'> +5.8015352e+02 </wgt>
<wgt id='135'> +4.6745437e+02 </wgt>
<wgt id='136'> +6.3508855e+02 </wgt>
<wgt id='137'> +6.1658836e+02 </wgt>
<wgt id='138'> +5.7566610e+02 </wgt>
<wgt id='139'> +5.3140207e+02 </wgt>
<wgt id='140'> +4.7892480e+02 </wgt>
<wgt id='141'> +6.8593379e+02 </wgt>
<wgt id='142'> +2.1525240e+02 </wgt>
<wgt id='143'> +5.1174598e+02 </wgt>
<wgt id='144'> +4.2518050e+02 </wgt>
<wgt id='145'> +4.4953962e+02 </wgt>
</rwgt>
</event>
<event>
 4      1 +5.0481800e+02 1.96956300e+02 7.54677100e-03 1.15233300e-01
       21 -1    0    0  503  502 +0.0000000000e+00 +0.0000000000e+00 +6.7034361520e+01 6.7034361520e+01 0.0000000000e+00 0.0000e+00 1.0000e+00
       21 -1    0    0  501  503 -0.0000000000e+00 -0.0000000000e+00 -6.0874892062e+02 6.0874892062e+02 0.0000000000e+00 0.0000e+00 1.0000e+00
        6  1    1    2  501    0 -2.1645899179e+01 +9.1620043454e+01 -1.9576740319e+02 2.7769885392e+02 1.7300000000e+02 0.0000e+00 1.0000e+00
       -6  1    1    2    0  502 +2.1645899179e+01 -9.1620043454e+01 -3.4594715590e+02 3.9808442822e+02 1.7300000000e+02 0.0000e+00 1.0000e+00
<mgrwt>
<rscale>  2 0.19695628E+03</rscale>
<asrwt>0</asrwt>
<pdfrwt beam="1">  1       21 0.10312979E-01 0.19695628E+03</pdfrwt>
<pdfrwt beam="2">  1       21 0.93653677E-01 0.19695628E+03</pdfrwt>
<totfact> 0.73450970E+04</totfact>
</mgrwt>
<rwgt>
<wgt id='1'> +6.4943144e+02 </wgt>
<wgt id='2'> +6.1808056e+02 </wgt>
<wgt id='3'> +5.0481800e+02 </wgt>
<wgt id='4'> +6.4943144e+02 </wgt>
<wgt id='5'> +5.0033632e+02 </wgt>
<wgt id='6'> +6.1878852e+02 </wgt>
<wgt id='7'> +5.8637377e+02 </wgt>
<wgt id='8'> +4.7262763e+02 </wgt>
<wgt id='9'> +6.1878852e+02 </wgt>
<wgt id='10'> +4.6838311e+02 </wgt>
<wgt id='11'> +5.7933068e+02 </wgt>
<wgt id='12'> +5.4890890e+02 </wgt>
<wgt id='13'> +4.4228747e+02 </wgt>
<wgt id='14'> +5.7933068e+02 </wgt>
<wgt id='15'> +4.3831524e+02 </wgt>
<wgt id='16'> +5.2981701e+02 </wgt>
<wgt id='17'> +5.0795792e+02 </wgt>
<wgt id='18'> +4.2525653e+02 </wgt>
<wgt id='19'> +5.2981700e+02 </wgt>
<wgt id='20'> +4.2173420e+02 </wgt>
<wgt id='21'> +4.8190029e+02 </wgt>
<wgt id='22'> +3.9813950e+02 </wgt>
<wgt id='23'> +5.0481800e+02 </wgt>
<wgt id='24'> +3.9480079e+02 </wgt>
<wgt id='25'> +4.7262763e+02 </wgt>
<wgt id='26'> +4.5111049e+02 </wgt>
<wgt id='27'> +3.7258107e+02 </wgt>
<wgt id='28'> +4.7262763e+02 </wgt>
<wgt id='29'> +3.6945654e+02 </wgt>
<wgt id='30'> +4.4631558e+02 </wgt>
<wgt id='31'> +4.2905900e+02 </wgt>
<wgt id='32'> +3.6308937e+02 </wgt>
<wgt id='33'> +4.4631558e+02 </wgt>
<wgt id='34'> +3.6024660e+02 </wgt>
<wgt id='35'> +4.2525653e+02 </wgt>
<wgt id='36'> +4.0704879e+02 </wgt>
<wgt id='37'> +3.3993651e+02 </wgt>
<wgt id='38'> +4.2525653e+02 </wgt>
<wgt id='39'> +3.3724001e+02 </wgt>
<wgt id='40'> +3.9813950e+02 </wgt>
<wgt id='41'> +3.8104144e+02 </wgt>
<wgt id='42'> +3.1811440e+02 </wgt>
<wgt id='43'> +3.9813950e+02 </wgt>
<wgt id='44'> +3.1559088e+02 </wgt>
<wgt id='45'> +5.0481800e+02 </wgt>
<wgt id='46'> +5.1279805e+02 </wgt>
<wgt id='47'> +5.1859856e+02 </wgt>
<wgt id='48'> +5.0689817e+02 </wgt>
<wgt id='49'> +4.9755485e+02 </wgt>
<wgt id='50'> +5.9050397e+02 </wgt>
<wgt id='51'> +4.9279152e+02 </wgt>
<wgt id='52'> +5.0347342e+02 </wgt>
<wgt id='53'> +5.0039519e+02 </wgt>
<wgt id='54'> +5.1229442e+02 </wgt>
<wgt id='55'> +4.7836638e+02 </wgt>
<wgt id='56'> +4.6560203e+02 </wgt>
<wgt id='57'> +5.0585322e+02 </wgt>
<wgt id='58'> +4.9765893e+02 </wgt>
<wgt id='59'> +5.1972516e+02 </wgt>
<wgt id='60'> +5.0200647e+02 </wgt>
<wgt id='61'> +4.5300763e+02 </wgt>
<wgt id='62'> +4.9506983e+02 </wgt>
<wgt id='63'> +5.0732013e+02 </wgt>
<wgt id='64'> +4.9740021e+02 </wgt>
<wgt id='65'> +5.5849689e+02 </wgt>
<wgt id='66'> +4.9597075e+02 </wgt>
<wgt id='67'> +5.0785779e+02 </wgt>
<wgt id='68'> +5.5225981e+02 </wgt>
<wgt id='69'> +5.0067327e+02 </wgt>
<wgt id='70'> +4.9972079e+02 </wgt>
<wgt id='71'> +5.0942923e+02 </wgt>
<wgt id='72'> +4.8982007e+02 </wgt>
<wgt id='73'> +4.9102319e+02 </wgt>
<wgt id='74'> +5.3046587e+02 </wgt>
<wgt id='75'> +5.1566812e+02 </wgt>
<wgt id='76'> +4.9874308e+02 </wgt>
<wgt id='77'> +4.9372233e+02 </wgt>
<wgt id='78'> +4.8630958e+02 </wgt>
<wgt id='79'> +4.9798798e+02 </wgt>
<wgt id='80'> +4.9233570e+02 </wgt>
<wgt id='81'> +4.9703409e+02 </wgt>
<wgt id='82'> +5.0047130e+02 </wgt>
<wgt id='83'> +5.0917809e+02 </wgt>
<wgt id='84'> +5.3902724e+02 </wgt>
<wgt id='85'> +5.1411646e+02 </wgt>
<wgt id='86'> +5.0587440e+02 </wgt>
<wgt id='87'> +5.0721688e+02 </wgt>
<wgt id='88'> +5.0611765e+02 </wgt>
<wgt id='89'> +5.0966878e+02 </wgt>
<wgt id='90'> +5.1291407e+02 </wgt>
<wgt id='91'> +5.1734209e+02 </wgt>
<wgt id='92'> +4.6692957e+02 </wgt>
<wgt id='93'> +5.0133777e+02 </wgt>
<wgt id='94'> +4.9329942e+02 </wgt>
<wgt id='95'> +4.9880353e+02 </wgt>
<wgt id='96'> +5.3682329e+02 </wgt>
<wgt id='97'> +5.0066096e+02 </wgt>
<wgt id='98'> +4.9353067e+02 </wgt>
<wgt id='99'> +4.8074244e+02 </wgt>
<wgt id='100'> +4.7641063e+02 </wgt>
<wgt id='101'> +5.4997996e+02 </wgt>
<wgt id='102'> +5.1383386e+02 </wgt>
<wgt id='103'> +5.3986734e+02 </wgt>
<wgt id='104'> +5.0779257e+02 </wgt>
<wgt id='105'> +5.2207169e+02 </wgt>
<wgt id='106'> +4.6620702e+02 </wgt>
<wgt id='107'> +4.8683588e+02 </wgt>
<wgt id='108'> +4.5168411e+02 </wgt>
<wgt id='109'> +4.7882372e+02 </wgt>
<wgt id='110'> +5.0133249e+02 </wgt>
<wgt id='111'> +4.9240536e+02 </wgt>
<wgt id='112'> +4.8192523e+02 </wgt>
<wgt id='113'> +4.7183512e+02 </wgt>
<wgt id='114'> +4.9843863e+02 </wgt>
<wgt id='115'> +4.8288637e+02 </wgt>
<wgt id='116'> +5.1762434e+02 </wgt>
<wgt id='117'> +5.0067455e+02 </wgt>
<wgt id='118'> +5.2479217e+02 </wgt>
<wgt id='119'> +4.9504811e+02 </wgt>
<wgt id='120'> +4.9434334e+02 </wgt>
<wgt id='121'> +4.9682004e+02 </wgt>
<wgt id='122'> +4.9962819e+02 </wgt>
<wgt id='123'> +5.0643403e+02 </wgt>
<wgt id='124'> +5.5163123e+02 </wgt>
<wgt id='125'> +5.5755243e+02 </wgt>
<wgt id='126'> +5.1823259e+02 </wgt>
<wgt id='127'> +5.1594800e+02 </wgt>
<wgt id='128'> +4.6261027e+02 </wgt>
<wgt id='129'> +5.6174514e+02 </wgt>
<wgt id='130'> +4.9949746e+02 </wgt>
<wgt id='131'> +5.2537105e+02 </wgt>
<wgt id='132'> +5.2560400e+02 </wgt>
<wgt id='133'> +5.1543555e+02 </wgt>
<wgt id='134'> +4.9092102e+02 </wgt>
<wgt id='135'> +5.1149897e+02 </wgt>
<wgt id='136'> +5.1749273e+02 </wgt>
<wgt id='137'> +4.8343136e+02 </wgt>
<wgt id='138'> +4.7168325e+02 </wgt>
<wgt id='139'> +5.1844257e+02 </wgt>
<wgt id='140'> +5.2085026e+02 </wgt>
<wgt id='141'> +5.1214889e+02 </wgt>
<wgt id='142'> +4.8021361e+02 </wgt>
<wgt id='143'> +5.1307104e+02 </wgt>
<wgt id='144'> +4.9695186e+02 </wgt>
<wgt id='145'> +5.0074247e+02 </wgt>
</rwgt>
</event>
<event>
 4      1 +5.0481800e+02 1.77572600e+02 7.54677100e-03 1.17017300e-01
       21 -1    0    0  503  502 +0.0000000000e+00 +0.0000000000e+00 +3.4653460056e+01 3.4653460056e+01 0.0000000000e+00 0.0000e+00 1.0000e+00
       21 -1    0    0  501  503 -0.0000000000e+00 -0.0000000000e+00 -1.3009614244e+03 1.3009614244e+03 0.0000000000e+00 0.0000e+00 1.0000e+00
        6  1    1    2  501    0 +3.9610607681e+01 -5.8345875328e+00 -9.9927761548e+02 1.0149324093e+03 1.7300000000e+02 0.0000e+00 1.0000e+00
       -6  1    1    2    0  502 -3.9610607681e+01 +5.8345875328e+00 -2.6703034883e+02 3.2068247512e+02 1.7300000000e+02 0.0000e+00 1.0000e+00
<mgrwt>
<rscale>  2 0.17757264E+03</rscale>
<asrwt>0</asrwt>
<pdfrwt beam="1">  1       21 0.53313019E-02 0.17757264E+03</pdfrwt>
<pdfrwt beam="2">  1       21 0.20014790E+00 0.17757264E+03</pdfrwt>
<totfact> 0.32668645E+04</totfact>
</mgrwt>
<rwgt>
<wgt id='1'> +6.7446711e+02 </wgt>
<wgt id='2'> +9.2131139e+02 </wgt>
<wgt id='3'> +5.0481800e+02 </wgt>
<wgt id='4'> +6.7446711e+02 </wgt>
<wgt id='5'> +4.6987617e+02 </wgt>
<wgt id='6'> +6.2184437e+02 </wgt>
<wgt id='7'> +8.5495605e+02 </wgt>
<wgt id='8'> +4.5796325e+02 </wgt>
<wgt id='9'> +6.2184437e+02 </wgt>
<wgt id='10'> +4.2607732e+02 </wgt>
<wgt id='11'> +5.6412780e+02 </wgt>
<wgt id='12'> +7.8834907e+02 </wgt>
<wgt id='13'> +4.1598885e+02 </wgt>
<wgt id='14'> +5.6412780e+02 </wgt>
<wgt id='15'> +3.8727775e+02 </wgt>
<wgt id='16'> +5.4753754e+02 </wgt>
<wgt id='17'> +7.2896490e+02 </wgt>
<wgt id='18'> +4.2396420e+02 </wgt>
<wgt id='19'> +5.4753754e+02 </wgt>
<wgt id='20'> +3.9646472e+02 </wgt>
<wgt id='21'> +6.7646287e+02 </wgt>
<wgt id='22'> +3.8461390e+02 </wgt>
<wgt id='23'> +5.0481800e+02 </wgt>
<wgt id='24'> +3.5950881e+02 </wgt>
<wgt id='25'> +4.5796325e+02 </wgt>
<wgt id='26'> +6.2376174e+02 </wgt>
<wgt id='27'> +3.4936230e+02 </wgt>
<wgt id='28'> +4.5796325e+02 </wgt>
<wgt id='29'> +3.2677112e+02 </wgt>
<wgt id='30'> +4.5984159e+02 </wgt>
<wgt id='31'> +5.9158749e+02 </wgt>
<wgt id='32'> +3.6130447e+02 </wgt>
<wgt id='33'> +4.5984159e+02 </wgt>
<wgt id='34'> +3.3896352e+02 </wgt>
<wgt id='35'> +4.2396420e+02 </wgt>
<wgt id='36'> +5.4897976e+02 </wgt>
<wgt id='37'> +3.2776994e+02 </wgt>
<wgt id='38'> +4.2396420e+02 </wgt>
<wgt id='39'> +3.0736751e+02 </wgt>
<wgt id='40'> +3.8461390e+02 </wgt>
<wgt id='41'> +5.0621045e+02 </wgt>
<wgt id='42'> +2.9772835e+02 </wgt>
<wgt id='43'> +3.8461390e+02 </wgt>
<wgt id='44'> +2.7937793e+02 </wgt>
<wgt id='45'> +5.0481800e+02 </wgt>
<wgt id='46'> +5.1820712e+02 </wgt>
<wgt id='47'> +5.2270759e+02 </wgt>
<wgt id='48'> +5.0318563e+02 </wgt>
<wgt id='49'> +4.6545998e+02 </wgt>
<wgt id='50'> +5.8673075e+02 </wgt>
<wgt id='51'> +4.7499318e+02 </wgt>
<wgt id='52'> +4.7076028e+02 </wgt>
<wgt id='53'> +5.0717993e+02 </wgt>
<wgt id='54'> +5.3648200e+02 </wgt>
<wgt id='55'> +5.6941872e+02 </wgt>
<wgt id='56'> +4.8512264e+02 </wgt>
<wgt id='57'> +5.3774886e+02 </wgt>
<wgt id='58'> +4.5832902e+02 </wgt>
<wgt id='59'> +5.4940021e+02 </wgt>
<wgt id='60'> +5.0636746e+02 </wgt>
<wgt id='61'> +4.4032976e+02 </wgt>
<wgt id='62'> +4.6443967e+02 </wgt>
<wgt id='63'> +5.3313165e+02 </wgt>
<wgt id='64'> +5.0680730e+02 </wgt>
<wgt id='65'> +4.5768204e+02 </wgt>
<wgt id='66'> +5.1136009e+02 </wgt>
<wgt id='67'> +5.0806350e+02 </wgt>
<wgt id='68'> +6.1374386e+02 </wgt>
<wgt id='69'> +5.4513012e+02 </wgt>
<wgt id='70'> +5.4649869e+02 </wgt>
<wgt id='71'> +4.6870959e+02 </wgt>
<wgt id='72'> +4.6384237e+02 </wgt>
<wgt id='73'> +4.5780172e+02 </wgt>
<wgt id='74'> +5.8029642e+02 </wgt>
<wgt id='75'> +5.5056492e+02 </wgt>
<wgt id='76'> +5.1979259e+02 </wgt>
<wgt id='77'> +4.7701351e+02 </wgt>
<wgt id='78'> +4.3494957e+02 </wgt>
<wgt id='79'> +5.4250709e+02 </wgt>
<wgt id='80'> +4.4694521e+02 </wgt>
<wgt id='81'> +5.2456224e+02 </wgt>
<wgt id='82'> +4.9565130e+02 </wgt>
<wgt id='83'> +4.9624209e+02 </wgt>
<wgt id='84'> +4.9029981e+02 </wgt>
<wgt id='85'> +4.5561112e+02 </wgt>
<wgt id='86'> +5.3033609e+02 </wgt>
<wgt id='87'> +4.9771962e+02 </wgt>
<wgt id='88'> +4.9126866e+02 </wgt>
<wgt id='89'> +4.2865102e+02 </wgt>
<wgt id='90'> +4.6992865e+02 </wgt>
<wgt id='91'> +4.3923910e+02 </wgt>
<wgt id='92'> +4.7567797e+02 </wgt>
<wgt id='93'> +5.1101232e+02 </wgt>
<wgt id='94'> +4.6382645e+02 </wgt>
<wgt id='95'> +5.3172932e+02 </wgt>
<wgt id='96'> +5.2671775e+02 </wgt>
<wgt id='97'> +4.5705897e+02 </wgt>
<wgt id='98'> +5.4439859e+02 </wgt>
<wgt id='99'> +4.2456257e+02 </wgt>
<wgt id='100'> +3.8646324e+02 </wgt>
<wgt id='101'> +5.8730274e+02 </wgt>
<wgt id='102'> +5.6725386e+02 </wgt>
<wgt id='103'> +4.8084037e+02 </wgt>
<wgt id='104'> +5.3963458e+02 </wgt>
<wgt id='105'> +5.1726720e+02 </wgt>
<wgt id='106'> +4.9353771e+02 </wgt>
<wgt id='107'> +4.9054700e+02 </wgt>
<wgt id='108'> +4.7407174e+02 </wgt>
<wgt id='109'> +5.0099867e+02 </wgt>
<wgt id='110'> +4.6430828e+02 </wgt>
<wgt id='111'> +4.9039822e+02 </wgt>
<wgt id='112'> +5.2699251e+02 </wgt>
<wgt id='113'> +5.3397822e+02 </wgt>
<wgt id='114'> +5.2508675e+02 </wgt>
<wgt id='115'> +4.6229433e+02 </wgt>
<wgt id='116'> +5.5328725e+02 </wgt>
<wgt id='117'> +4.9419717e+02 </wgt>
<wgt id='118'> +5.1884836e+02 </wgt>
<wgt id='119'> +5.5552110e+02 </wgt>
<wgt id='120'> +5.0470320e+02 </wgt>
<wgt id='121'> +4.9734203e+02 </wgt>
<wgt id='122'> +4.9389024e+02 </wgt>
<wgt id='123'> +4.7986711e+02 </wgt>
<wgt id='124'> +5.6778062e+02 </wgt>
<wgt id='125'> +6.3368069e+02 </wgt>
<wgt id='126'> +4.9337385e+02 </wgt>
<wgt id='127'> +4.8204314e+02 </wgt>
<wgt id='128'> +4.8713278e+02 </wgt>
<wgt id='129'> +5.1332468e+02 </wgt>
<wgt id='130'> +4.9245389e+02 </wgt>
<wgt id='131'> +4.6357186e+02 </wgt>
<wgt id='132'> +5.5334891e+02 </wgt>
<wgt id='133'> +5.5089755e+02 </wgt>
<wgt id='134'> +5.3248118e+02 </wgt>
<wgt id='135'> +4.8252371e+02 </wgt>
<wgt id='136'> +5.9716025e+02 </wgt>
<wgt id='137'> +5.3008062e+02 </wgt>
<wgt id='138'> +5.1559010e+02 </wgt>
<wgt id='139'> +5.2076718e+02 </wgt>
<wgt id='140'> +4.9201431e+02 </wgt>
<wgt id='141'> +5.7388073e+02 </wgt>
<wgt id='142'> +3.5384740e+02 </wgt>
<wgt id='143'> +5.1813830e+02 </wgt>
<wgt id='144'> +4.5947041e+02 </wgt>
<wgt id='145'> +4.6389325e+02 </wgt>
</rwgt>
</event>
<event>
 4      1 +5.0481800e+02 1.82606000e+02 7.54677100e-03 1.16530500e-01
       21 -1    0    0  501  502 +0.0000000000e+00 +0.0000000000e+00 +3.8196074778e+02 3.8196074778e+02 0.0000000000e+00 0.0000e+00 -1.0000e+00
       21 -1    0    0  502  503 -0.0000000000e+00 -0.0000000000e+00 -1.2184985896e+02 1.2184985896e+02 0.0000000000e+00 0.0000e+00 -1.0000e+00
        6  1    1    2  501    0 -1.7949959344e+01 -5.5621398204e+01 +2.6419342295e+02 3.2115900378e+02 1.7300000000e+02 0.0000e+00 -1.0000e+00
       -6  1    1    2    0  503 +1.7949959344e+01 +5.5621398204e+01 -4.0825341378e+00 1.8265160296e+02 1.7300000000e+02 0.0000e+00 -1.0000e+00
<mgrwt>
<rscale>  2 0.18260597E+03</rscale>
<asrwt>0</asrwt>
<pdfrwt beam="1">  1       21 0.58763191E-01 0.18260597E+03</pdfrwt>
<pdfrwt beam="2">  1       21 0.18746132E-01 0.18260597E+03</pdfrwt>
<totfact> 0.70861159E+04</totfact>
</mgrwt>
<rwgt>
<wgt id='1'> +6.4918907e+02 </wgt>
<wgt id='2'> +5.7679968e+02 </wgt>
<wgt id='3'> +5.0481800e+02 </wgt>
<wgt id='4'> +6.4918907e+02 </wgt>
<wgt id='5'> +4.7626163e+02 </wgt>
<wgt id='6'> +6.2098895e+02 </wgt>
<wgt id='7'> +5.4640960e+02 </wgt>
<wgt id='8'> +4.7393248e+02 </wgt>
<wgt id='9'> +6.2098895e+02 </wgt>
<wgt id='10'> +4.4676972e+02 </wgt>
<wgt id='11'> +5.8299592e+02 </wgt>
<wgt id='12'> +5.1254546e+02 </wgt>
<wgt id='13'> +4.4447718e+02 </wgt>
<wgt id='14'> +5.8299592e+02 </wgt>
<wgt id='15'> +4.1900373e+02 </wgt>
<wgt id='16'> +5.2774261e+02 </wgt>
<wgt id='17'> +4.7682081e+02 </wgt>
<wgt id='18'> +4.2434105e+02 </wgt>
<wgt id='19'> +5.2774260e+02 </wgt>
<wgt id='20'> +4.0197390e+02 </wgt>
<wgt id='21'> +4.5169836e+02 </wgt>
<wgt id='22'> +3.9837923e+02 </wgt>
<wgt id='23'> +5.0481800e+02 </wgt>
<wgt id='24'> +3.7708216e+02 </wgt>
<wgt id='25'> +4.7393248e+02 </wgt>
<wgt id='26'> +4.2370402e+02 </wgt>
<wgt id='27'> +3.7361962e+02 </wgt>
<wgt id='28'> +4.7393248e+02 </wgt>
<wgt id='29'> +3.5364714e+02 </wgt>
<wgt id='30'> +4.4361106e+02 </wgt>
<wgt id='31'> +4.0366382e+02 </wgt>
<wgt id='32'> +3.6181059e+02 </wgt>
<wgt id='33'> +4.4361106e+02 </wgt>
<wgt id='34'> +3.4377020e+02 </wgt>
<wgt id='35'> +4.2434105e+02 </wgt>
<wgt id='36'> +3.8239582e+02 </wgt>
<wgt id='37'> +3.3967448e+02 </wgt>
<wgt id='38'> +4.2434105e+02 </wgt>
<wgt id='39'> +3.2248266e+02 </wgt>
<wgt id='40'> +3.9837923e+02 </wgt>
<wgt id='41'> +3.5869656e+02 </wgt>
<wgt id='42'> +3.1856342e+02 </wgt>
<wgt id='43'> +3.9837923e+02 </wgt>
<wgt id='44'> +3.0244090e+02 </wgt>
<wgt id='45'> +5.0481800e+02 </wgt>
<wgt id='46'> +5.0612826e+02 </wgt>
<wgt id='47'> +5.2182854e+02 </wgt>
<wgt id='48'> +5.0640481e+02 </wgt>
<wgt id='49'> +5.0312965e+02 </wgt>
<wgt id='50'> +5.8885781e+02 </wgt>
<wgt id='51'> +4.9494881e+02 </wgt>
<wgt id='52'> +5.0279611e+02 </wgt>
<wgt id='53'> +5.0867092e+02 </wgt>
<wgt id='54'> +5.0802599e+02 </wgt>
<wgt id='55'> +4.5528973e+02 </wgt>
<wgt id='56'> +4.6866678e+02 </wgt>
<wgt id='57'> +4.9369284e+02 </wgt>
<wgt id='58'> +5.0711448e+02 </wgt>
<wgt id='59'> +5.0130092e+02 </wgt>
<wgt id='60'> +4.8765408e+02 </wgt>
<wgt id='61'> +4.8534221e+02 </wgt>
<wgt id='62'> +4.9797997e+02 </wgt>
<wgt id='63'> +5.0523502e+02 </wgt>
<wgt id='64'> +4.9922045e+02 </wgt>
<wgt id='65'> +5.8945319e+02 </wgt>
<wgt id='66'> +4.9308812e+02 </wgt>
<wgt id='67'> +5.0913713e+02 </wgt>
<wgt id='68'> +5.4228071e+02 </wgt>
<wgt id='69'> +4.9298506e+02 </wgt>
<wgt id='70'> +4.9662208e+02 </wgt>
<wgt id='71'> +5.1414083e+02 </wgt>
<wgt id='72'> +4.9138742e+02 </wgt>
<wgt id='73'> +4.9756851e+02 </wgt>
<wgt id='74'> +5.2114715e+02 </wgt>
<wgt id='75'> +5.1548619e+02 </wgt>
<wgt id='76'> +4.9150863e+02 </wgt>
<wgt id='77'> +4.8787524e+02 </wgt>
<wgt id='78'> +5.0232876e+02 </wgt>
<wgt id='79'> +4.8619497e+02 </wgt>
<wgt id='80'> +4.9956348e+02 </wgt>
<wgt id='81'> +4.9558442e+02 </wgt>
<wgt id='82'> +5.1559216e+02 </wgt>
<wgt id='83'> +5.1411366e+02 </wgt>
<wgt id='84'> +5.5197980e+02 </wgt>
<wgt id='85'> +5.2876156e+02 </wgt>
<wgt id='86'> +5.0186916e+02 </wgt>
<wgt id='87'> +5.0535878e+02 </wgt>
<wgt id='88'> +5.1210418e+02 </wgt>
<wgt id='89'> +5.1657507e+02 </wgt>
<wgt id='90'> +5.1164750e+02 </wgt>
<wgt id='91'> +5.3452309e+02 </wgt>
<wgt id='92'> +4.6538834e+02 </wgt>
<wgt id='93'> +4.9690397e+02 </wgt>
<wgt id='94'> +5.0122599e+02 </wgt>
<wgt id='95'> +4.8648793e+02 </wgt>
<wgt id='96'> +5.4381388e+02 </wgt>
<wgt id='97'> +5.1110191e+02 </wgt>
<wgt id='98'> +4.8313516e+02 </wgt>
<wgt id='99'> +4.8932488e+02 </wgt>
<wgt id='100'> +4.9800457e+02 </wgt>
<wgt id='101'> +5.3317352e+02 </wgt>
<wgt id='102'> +4.9354381e+02 </wgt>
<wgt id='103'> +5.4749235e+02 </wgt>
<wgt id='104'> +5.0397849e+02 </wgt>
<wgt id='105'> +5.2456252e+02 </wgt>
<wgt id='106'> +4.6465248e+02 </wgt>
<wgt id='107'> +4.9673929e+02 </wgt>
<wgt id='108'> +4.5194321e+02 </wgt>
<wgt id='109'> +4.7477970e+02 </wgt>
<wgt id='110'> +5.0560034e+02 </wgt>
<wgt id='111'> +4.9178627e+02 </wgt>
<wgt id='112'> +4.8091783e+02 </wgt>
<wgt id='113'> +4.6435658e+02 </wgt>
<wgt id='114'> +5.0213245e+02 </wgt>
<wgt id='115'> +5.0115652e+02 </wgt>
<wgt id='116'> +5.0597663e+02 </wgt>
<wgt id='117'> +5.0947802e+02 </wgt>
<wgt id='118'> +5.1863909e+02 </wgt>
<wgt id='119'> +4.8635954e+02 </wgt>
<wgt id='120'> +4.9990974e+02 </wgt>
<wgt id='121'> +4.9175474e+02 </wgt>
<wgt id='122'> +4.9862894e+02 </wgt>
<wgt id='123'> +5.1039663e+02 </wgt>
<wgt id='124'> +5.4082181e+02 </wgt>
<wgt id='125'> +5.4228185e+02 </wgt>
<wgt id='126'> +5.2317471e+02 </wgt>
<wgt id='127'> +5.1943672e+02 </wgt>
<wgt id='128'> +4.6704325e+02 </wgt>
<wgt id='129'> +5.7056269e+02 </wgt>
<wgt id='130'> +5.0677111e+02 </wgt>
<wgt id='131'> +5.3876157e+02 </wgt>
<wgt id='132'> +5.0410779e+02 </wgt>
<wgt id='133'> +5.0326768e+02 </wgt>
<wgt id='134'> +4.7734312e+02 </wgt>
<wgt id='135'> +5.1714505e+02 </wgt>
<wgt id='136'> +4.8915667e+02 </wgt>
<wgt id='137'> +4.7610158e+02 </wgt>
<wgt id='138'> +4.6010140e+02 </wgt>
<wgt id='139'> +5.1524154e+02 </wgt>
<wgt id='140'> +5.3421466e+02 </wgt>
<wgt id='141'> +5.0460466e+02 </wgt>
<wgt id='142'> +5.0441087e+02 </wgt>
<wgt id='143'> +5.0284181e+02 </wgt>
<wgt id='144'> +5.0390930e+02 </wgt>
<wgt id='145'> +5.0574990e+02 </wgt>
</rwgt>
</event>
<event>
 4      1 +5.0481800e+02 1.73677500e+02 7.54677100e-03 1.17406600e-01
       21 -1    0    0  503  502 +0.0000000000e+00 +0.0000000000e+00 +1.5613760592e+02 1.5613760592e+02 0.0000000000e+00 0.0000e+00 1.0000e+00
       21 -1    0    0  501  503 -0.0000000000e+00 -0.0000000000e+00 -3.1892997421e+02 3.1892997421e+02 0.0000000000e+00 0.0000e+00 1.0000e+00
        6  1    1    2  501    0 +1.4024306459e+01 +6.1803146250e+00 -2.3054446326e+02 2.8864273245e+02 1.7300000000e+02 0.0000e+00 1.0000e+00
       -6  1    1    2    0  502 -1.4024306459e+01 -6.1803146250e+00 +6.7752094965e+01 1.8642484768e+02 1.7300000000e+02 0.0000e+00 1.0000e+00
<mgrwt>
<rscale>  2 0.17367751E+03</rscale>
<asrwt>0</asrwt>
<pdfrwt beam="1">  1       21 0.24021170E-01 0.17367751E+03</pdfrwt>
<pdfrwt beam="2">  1       21 0.49066149E-01 0.17367751E+03</pdfrwt>
<totfact> 0.65316968E+04</totfact>
</mgrwt>
<rwgt>
<wgt id='1'> +6.5073828e+02 </wgt>
<wgt id='2'> +9.8975268e+02 </wgt>
<wgt id='3'> +5.0481800e+02 </wgt>
<wgt id='4'> +6.5073828e+02 </wgt>
<wgt id='5'> +4.6231849e+02 </wgt>
<wgt id='6'> +6.2248737e+02 </wgt>
<wgt id='7'> +9.6165310e+02 </wgt>
<wgt id='8'> +4.7380466e+02 </wgt>
<wgt id='9'> +6.2248737e+02 </wgt>
<wgt id='10'> +4.3333420e+02 </wgt>
<wgt id='11'> +5.8424505e+02 </wgt>
<wgt id='12'> +9.2406904e+02 </wgt>
<wgt id='13'> +4.4402726e+02 </wgt>
<wgt id='14'> +5.8424505e+02 </wgt>
<wgt id='15'> +4.0611946e+02 </wgt>
<wgt id='16'> +5.2772861e+02 </wgt>
<wgt id='17'> +7.7052077e+02 </wgt>
<wgt id='18'> +4.2364879e+02 </wgt>
<wgt id='19'> +5.2772861e+02 </wgt>
<wgt id='20'> +3.9045184e+02 </wgt>
<wgt id='21'> +7.4864530e+02 </wgt>
<wgt id='22'> +3.9762205e+02 </wgt>
<wgt id='23'> +5.0481800e+02 </wgt>
<wgt id='24'> +3.6597311e+02 </wgt>
<wgt id='25'> +4.7380466e+02 </wgt>
<wgt id='26'> +7.1938617e+02 </wgt>
<wgt id='27'> +3.7263254e+02 </wgt>
<wgt id='28'> +4.7380466e+02 </wgt>
<wgt id='29'> +3.4298885e+02 </wgt>
<wgt id='30'> +4.4287563e+02 </wgt>
<wgt id='31'> +6.1680359e+02 </wgt>
<wgt id='32'> +3.6088760e+02 </wgt>
<wgt id='33'> +4.4287563e+02 </wgt>
<wgt id='34'> +3.3411391e+02 </wgt>
<wgt id='35'> +4.2364879e+02 </wgt>
<wgt id='36'> +5.9929223e+02 </wgt>
<wgt id='37'> +3.3871658e+02 </wgt>
<wgt id='38'> +4.2364879e+02 </wgt>
<wgt id='39'> +3.1316720e+02 </wgt>
<wgt id='40'> +3.9762205e+02 </wgt>
<wgt id='41'> +5.7587024e+02 </wgt>
<wgt id='42'> +3.1742912e+02 </wgt>
<wgt id='43'> +3.9762205e+02 </wgt>
<wgt id='44'> +2.9349931e+02 </wgt>
<wgt id='45'> +5.0481800e+02 </wgt>
<wgt id='46'> +5.0456872e+02 </wgt>
<wgt id='47'> +5.2266516e+02 </wgt>
<wgt id='48'> +5.0610966e+02 </wgt>
<wgt id='49'> +5.0401952e+02 </wgt>
<wgt id='50'> +5.8916614e+02 </wgt>
<wgt id='51'> +4.9508326e+02 </wgt>
<wgt id='52'> +5.0214976e+02 </wgt>
<wgt id='53'> +5.1094764e+02 </wgt>
<wgt id='54'> +5.0762871e+02 </wgt>
<wgt id='55'> +4.5045900e+02 </wgt>
<wgt id='56'> +4.6948233e+02 </wgt>
<wgt id='57'> +4.9113735e+02 </wgt>
<wgt id='58'> +5.0877117e+02 </wgt>
<wgt id='59'> +4.9705985e+02 </wgt>
<wgt id='60'> +4.8386322e+02 </wgt>
<wgt id='61'> +4.9233022e+02 </wgt>
<wgt id='62'> +4.9821978e+02 </wgt>
<wgt id='63'> +5.0512750e+02 </wgt>
<wgt id='64'> +5.0030051e+02 </wgt>
<wgt id='65'> +5.9661039e+02 </wgt>
<wgt id='66'> +4.9244307e+02 </wgt>
<wgt id='67'> +5.0936533e+02 </wgt>
<wgt id='68'> +5.4052137e+02 </wgt>
<wgt id='69'> +4.9157768e+02 </wgt>
<wgt id='70'> +4.9620758e+02 </wgt>
<wgt id='71'> +5.1464321e+02 </wgt>
<wgt id='72'> +4.9136036e+02 </wgt>
<wgt id='73'> +4.9850856e+02 </wgt>
<wgt id='74'> +5.1951458e+02 </wgt>
<wgt id='75'> +5.1582947e+02 </wgt>
<wgt id='76'> +4.8989356e+02 </wgt>
<wgt id='77'> +4.8603671e+02 </wgt>
<wgt id='78'> +5.0565912e+02 </wgt>
<wgt id='79'> +4.8360313e+02 </wgt>
<wgt id='80'> +5.0069156e+02 </wgt>
<wgt id='81'> +4.9540388e+02 </wgt>
<wgt id='82'> +5.1889926e+02 </wgt>
<wgt id='83'> +5.1520347e+02 </wgt>
<wgt id='84'> +5.5487169e+02 </wgt>
<wgt id='85'> +5.3186930e+02 </wgt>
<wgt id='86'> +5.0116462e+02 </wgt>
<wgt id='87'> +5.0478926e+02 </wgt>
<wgt id='88'> +5.1344228e+02 </wgt>
<wgt id='89'> +5.1725731e+02 </wgt>
<wgt id='90'> +5.1068226e+02 </wgt>
<wgt id='91'> +5.3784184e+02 </wgt>
<wgt id='92'> +4.6457020e+02 </wgt>
<wgt id='93'> +4.9585598e+02 </wgt>
<wgt id='94'> +5.0251060e+02 </wgt>
<wgt id='95'> +4.8402440e+02 </wgt>
<wgt id='96'> +5.4553190e+02 </wgt>
<wgt id='97'> +5.1308631e+02 </wgt>
<wgt id='98'> +4.8097633e+02 </wgt>
<wgt id='99'> +4.9048289e+02 </wgt>
<wgt id='100'> +5.0185617e+02 </wgt>
<wgt id='101'> +5.2972235e+02 </wgt>
<wgt id='102'> +4.8923758e+02 </wgt>
<wgt id='103'> +5.4882207e+02 </wgt>
<wgt id='104'> +5.0354441e+02 </wgt>
<wgt id='105'> +5.2526773e+02 </wgt>
<wgt id='106'> +4.6435829e+02 </wgt>
<wgt id='107'> +4.9913491e+02 </wgt>
<wgt id='108'> +4.5212902e+02 </wgt>
<wgt id='109'> +4.7419068e+02 </wgt>
<wgt id='110'> +5.0614394e+02 </wgt>
<wgt id='111'> +4.9165387e+02 </wgt>
<wgt id='112'> +4.8151172e+02 </wgt>
<wgt id='113'> +4.6304351e+02 </wgt>
<wgt id='114'> +5.0399844e+02 </wgt>
<wgt id='115'> +5.0612436e+02 </wgt>
<wgt id='116'> +5.0366481e+02 </wgt>
<wgt id='117'> +5.1179068e+02 </wgt>
<wgt id='118'> +5.1718663e+02 </wgt>
<wgt id='119'> +4.8498294e+02 </wgt>
<wgt id='120'> +5.0282077e+02 </wgt>
<wgt id='121'> +4.9074650e+02 </wgt>
<wgt id='122'> +4.9828236e+02 </wgt>
<wgt id='123'> +5.1123988e+02 </wgt>
<wgt id='124'> +5.3866120e+02 </wgt>
<wgt id='125'> +5.3974706e+02 </wgt>
<wgt id='126'> +5.2424731e+02 </wgt>
<wgt id='127'> +5.1991836e+02 </wgt>
<wgt id='128'> +4.6839896e+02 </wgt>
<wgt id='129'> +5.7245597e+02 </wgt>
<wgt id='130'> +5.0860223e+02 </wgt>
<wgt id='131'> +5.4146092e+02 </wgt>
<wgt id='132'> +4.9897880e+02 </wgt>
<wgt id='133'> +5.0077143e+02 </wgt>
<wgt id='134'> +4.7423188e+02 </wgt>
<wgt id='135'> +5.1819332e+02 </wgt>
<wgt id='136'> +4.8328832e+02 </wgt>
<wgt id='137'> +4.7461987e+02 </wgt>
<wgt id='138'> +4.5768178e+02 </wgt>
<wgt id='139'> +5.1453510e+02 </wgt>
<wgt id='140'> +5.3739237e+02 </wgt>
<wgt id='141'> +5.0359550e+02 </wgt>
<wgt id='142'> +5.0919074e+02 </wgt>
<wgt id='143'> +5.0014713e+02 </wgt>
<wgt id='144'> +5.0491670e+02 </wgt>
<wgt id='145'> +5.0612197e+02 </wgt>
</rwgt>
</event>
<event>
 4      1 +5.0481800e+02 2.16588100e+02 7.54677100e-03 1.13645300e-01
       -1 -1    0    0    0  501 -0.0000000000e+00 +0.0000000000e+00 +2.5094686677e+01 2.5094686677e+01 0.0000000000e+00 0.0000e+00 -1.0000e+00
        1 -1    0    0  502    0 +0.0000000000e+00 -0.0000000000e+00 -2.2059922941e+03 2.2059922941e+03 0.0000000000e+00 0.0000e+00 1.0000e+00
        6  1    1    2  502    0 +8.7033386356e+01 +9.6987541250e+01 -6.5465798293e+02 6.8955599346e+02 1.7300000000e+02 0.0000e+00 -1.0000e+00
       -6  1    1    2    0  501 -8.7033386356e+01 -9.6987541250e+01 -1.5262396245e+03 1.5415309873e+03 1.7300000000e+02 0.0000e+00 -1.0000e+00
<mgrwt>
<rscale>  2 0.21658807E+03</rscale>
<asrwt>0</asrwt>
<pdfrwt beam="2">  1        1 0.33938347E+00 0.21658807E+03</pdfrwt>
<pdfrwt beam="1">  1       -1 0.38607205E-02 0.21658807E+03</pdfrwt>
<totfact> 0.64722896E+02</totfact>
</mgrwt>
<rwgt>
<wgt id='1'> +6.2972678e+02 </wgt>
<wgt id='2'> +5.8800247e+02 </wgt>
<wgt id='3'> +5.0481800e+02 </wgt>
<wgt id='4'> +6.2972678e+02 </wgt>
<wgt id='5'> +4.9289658e+02 </wgt>
<wgt id='6'> +6.1554153e+02 </wgt>
<wgt id='7'> +5.7412622e+02 </wgt>
<wgt id='8'> +4.9169421e+02 </wgt>
<wgt id='9'> +6.1554153e+02 </wgt>
<wgt id='10'> +4.7990556e+02 </wgt>
<wgt id='11'> +5.9953926e+02 </wgt>
<wgt id='12'> +5.5870581e+02 </wgt>
<wgt id='13'> +4.7765391e+02 </wgt>
<wgt id='14'> +5.9953926e+02 </wgt>
<wgt id='15'> +4.6608422e+02 </wgt>
<wgt id='16'> +5.1645161e+02 </wgt>
<wgt id='17'> +4.8744401e+02 </wgt>
<wgt id='18'> +4.2610750e+02 </wgt>
<wgt id='19'> +5.1645161e+02 </wgt>
<wgt id='20'> +4.1671071e+02 </wgt>
<wgt id='21'> +4.7594084e+02 </wgt>
<wgt id='22'> +4.1502995e+02 </wgt>
<wgt id='23'> +5.0481800e+02 </wgt>
<wgt id='24'> +4.0572769e+02 </wgt>
<wgt id='25'> +4.9169421e+02 </wgt>
<wgt id='26'> +4.6315758e+02 </wgt>
<wgt id='27'> +4.0317879e+02 </wgt>
<wgt id='28'> +4.9169421e+02 </wgt>
<wgt id='29'> +3.9404268e+02 </wgt>
<wgt id='30'> +4.3592721e+02 </wgt>
<wgt id='31'> +4.1310613e+02 </wgt>
<wgt id='32'> +3.6443460e+02 </wgt>
<wgt id='33'> +4.3592721e+02 </wgt>
<wgt id='34'> +3.5691227e+02 </wgt>
<wgt id='35'> +4.2610750e+02 </wgt>
<wgt id='36'> +4.0335726e+02 </wgt>
<wgt id='37'> +3.5496037e+02 </wgt>
<wgt id='38'> +4.2610750e+02 </wgt>
<wgt id='39'> +3.4750532e+02 </wgt>
<wgt id='40'> +4.1502995e+02 </wgt>
<wgt id='41'> +3.9252352e+02 </wgt>
<wgt id='42'> +3.4482449e+02 </wgt>
<wgt id='43'> +4.1502995e+02 </wgt>
<wgt id='44'> +3.3749712e+02 </wgt>
<wgt id='45'> +5.0481800e+02 </wgt>
<wgt id='46'> +4.9190822e+02 </wgt>
<wgt id='47'> +4.7102201e+02 </wgt>
<wgt id='48'> +5.7190882e+02 </wgt>
<wgt id='49'> +5.5224051e+02 </wgt>
<wgt id='50'> +4.1365129e+02 </wgt>
<wgt id='51'> +5.8005066e+02 </wgt>
<wgt id='52'> +4.8387691e+02 </wgt>
<wgt id='53'> +4.5340422e+02 </wgt>
<wgt id='54'> +4.7883670e+02 </wgt>
<wgt id='55'> +5.6178366e+02 </wgt>
<wgt id='56'> +5.4888909e+02 </wgt>
<wgt id='57'> +4.7120863e+02 </wgt>
<wgt id='58'> +4.5366032e+02 </wgt>
<wgt id='59'> +5.4546483e+02 </wgt>
<wgt id='60'> +4.5433855e+02 </wgt>
<wgt id='61'> +5.2937388e+02 </wgt>
<wgt id='62'> +5.3656071e+02 </wgt>
<wgt id='63'> +4.8304923e+02 </wgt>
<wgt id='64'> +4.8711392e+02 </wgt>
<wgt id='65'> +5.4081817e+02 </wgt>
<wgt id='66'> +6.3007679e+02 </wgt>
<wgt id='67'> +5.1572942e+02 </wgt>
<wgt id='68'> +4.0272008e+02 </wgt>
<wgt id='69'> +5.0394232e+02 </wgt>
<wgt id='70'> +4.4165303e+02 </wgt>
<wgt id='71'> +6.1481939e+02 </wgt>
<wgt id='72'> +5.0676455e+02 </wgt>
<wgt id='73'> +4.8250845e+02 </wgt>
<wgt id='74'> +3.9300910e+02 </wgt>
<wgt id='75'> +4.3256397e+02 </wgt>
<wgt id='76'> +4.8730716e+02 </wgt>
<wgt id='77'> +5.9404469e+02 </wgt>
<wgt id='78'> +5.1198921e+02 </wgt>
<wgt id='79'> +4.8800916e+02 </wgt>
<wgt id='80'> +5.7482971e+02 </wgt>
<wgt id='81'> +4.7555844e+02 </wgt>
<wgt id='82'> +5.6051324e+02 </wgt>
<wgt id='83'> +4.9400050e+02 </wgt>
<wgt id='84'> +5.2983819e+02 </wgt>
<wgt id='85'> +5.0249671e+02 </wgt>
<wgt id='86'> +4.6531731e+02 </wgt>
<wgt id='87'> +4.7339990e+02 </wgt>
<wgt id='88'> +4.8906259e+02 </wgt>
<wgt id='89'> +5.3208363e+02 </wgt>
<wgt id='90'> +5.4688303e+02 </wgt>
<wgt id='91'> +6.4085608e+02 </wgt>
<wgt id='92'> +5.3053831e+02 </wgt>
<wgt id='93'> +4.7751996e+02 </wgt>
<wgt id='94'> +5.3562145e+02 </wgt>
<wgt id='95'> +4.7984887e+02 </wgt>
<wgt id='96'> +4.9922985e+02 </wgt>
<wgt id='97'> +5.2145919e+02 </wgt>
<wgt id='98'> +4.9359185e+02 </wgt>
<wgt id='99'> +5.2677103e+02 </wgt>
<wgt id='100'> +6.1982618e+02 </wgt>
<wgt id='101'> +4.6089187e+02 </wgt>
<wgt id='102'> +4.5571318e+02 </wgt>
<wgt id='103'> +4.2526975e+02 </wgt>
<wgt id='104'> +6.1073971e+02 </wgt>
<wgt id='105'> +4.6999282e+02 </wgt>
<wgt id='106'> +5.1152209e+02 </wgt>
<wgt id='107'> +5.3284256e+02 </wgt>
<wgt id='108'> +5.5690446e+02 </wgt>
<wgt id='109'> +5.7705915e+02 </wgt>
<wgt id='110'> +5.0412552e+02 </wgt>
<wgt id='111'> +5.0339952e+02 </wgt>
<wgt id='112'> +4.9342273e+02 </wgt>
<wgt id='113'> +4.5930203e+02 </wgt>
<wgt id='114'> +5.9017237e+02 </wgt>
<wgt id='115'> +5.6828411e+02 </wgt>
<wgt id='116'> +5.6023386e+02 </wgt>
<wgt id='117'> +4.9617524e+02 </wgt>
<wgt id='118'> +4.3601695e+02 </wgt>
<wgt id='119'> +4.4153367e+02 </wgt>
<wgt id='120'> +4.8315391e+02 </wgt>
<wgt id='121'> +5.4851778e+02 </wgt>
<wgt id='122'> +4.9896145e+02 </wgt>
<wgt id='123'> +5.0365042e+02 </wgt>
<wgt id='124'> +3.9037913e+02 </wgt>
<wgt id='125'> +3.2499771e+02 </wgt>
<wgt id='126'> +4.9913905e+02 </wgt>
<wgt id='127'> +4.8008678e+02 </wgt>
<wgt id='128'> +6.3822315e+02 </wgt>
<wgt id='129'> +4.7807324e+02 </wgt>
<wgt id='130'> +4.9602558e+02 </wgt>
<wgt id='131'> +4.9345680e+02 </wgt>
<wgt id='132'> +4.5463812e+02 </wgt>
<wgt id='133'> +4.7667637e+02 </wgt>
<wgt id='134'> +5.0035445e+02 </wgt>
<wgt id='135'> +5.4162752e+02 </wgt>
<wgt id='136'> +4.2846431e+02 </wgt>
<wgt id='137'> +5.0201710e+02 </wgt>
<wgt id='138'> +5.3292965e+02 </wgt>
<wgt id='139'> +4.7851652e+02 </wgt>
<wgt id='140'> +4.4364894e+02 </wgt>
<wgt id='141'> +4.3772396e+02 </wgt>
<wgt id='142'> +6.1286490e+02 </wgt>
<wgt id='143'> +4.7437757e+02 </wgt>
<wgt id='144'> +5.1707561e+02 </wgt>
<wgt id='145'> +5.3180067e+02 </wgt>
</rwgt>
</event>
<event>
 4      1 +5.0481800e+02 1.81786600e+02 7.54677100e-03 1.16608500e-01
       21 -1    0    0  501  502 +0.0000000000e+00 +0.0000000000e+00 +1.4761609772e+03 1.4761609772e+03 0.0000000000e+00 0.0000e+00 -1.0000e+00
       21 -1    0    0  502  503 -0.0000000000e+00 -0.0000000000e+00 -2.4602344517e+01 2.4602344517e+01 0.0000000000e+00 0.0000e+00 -1.0000e+00
        6  1    1    2  501    0 -2.9568191553e+01 -4.7361424205e+01 +9.5096634662e+02 9.6818560971e+02 1.7300000000e+02 0.0000e+00 -1.0000e+00
       -6  1    1    2    0  503 +2.9568191553e+01 +4.7361424205e+01 +5.0059228604e+02 5.3257771198e+02 1.7300000000e+02 0.0000e+00 -1.0000e+00
<mgrwt>
<rscale>  2 0.18178664E+03</rscale>
<asrwt>0</asrwt>
<pdfrwt beam="1">  1       21 0.22710162E+00 0.18178664E+03</pdfrwt>
<pdfrwt beam="2">  1       21 0.37849772E-02 0.18178664E+03</pdfrwt>
<totfact> 0.39459181E+04</totfact>
</mgrwt>
<rwgt>
<wgt id='1'> +6.7759757e+02 </wgt>
<wgt id='2'> +8.2938617e+02 </wgt>
<wgt id='3'> +5.0481800e+02 </wgt>
<wgt id='4'> +6.7759757e+02 </wgt>
<wgt id='5'> +4.9514415e+02 </wgt>
<wgt id='6'> +6.2112042e+02 </wgt>
<wgt id='7'> +7.6320926e+02 </wgt>
<wgt id='8'> +4.5568569e+02 </wgt>
<wgt id='9'> +6.2112042e+02 </wgt>
<wgt id='10'> +4.4684602e+02 </wgt>
<wgt id='11'> +5.6066876e+02 </wgt>
<wgt id='12'> +6.9536016e+02 </wgt>
<wgt id='13'> +4.1219565e+02 </wgt>
<wgt id='14'> +5.6066876e+02 </wgt>
<wgt id='15'> +4.0428129e+02 </wgt>
<wgt id='16'> +5.5072002e+02 </wgt>
<wgt id='17'> +6.6296174e+02 </wgt>
<wgt id='18'> +4.2428188e+02 </wgt>
<wgt id='19'> +5.5072002e+02 </wgt>
<wgt id='20'> +4.1673546e+02 </wgt>
<wgt id='21'> +6.1006386e+02 </wgt>
<wgt id='22'> +3.8298789e+02 </wgt>
<wgt id='23'> +5.0481800e+02 </wgt>
<wgt id='24'> +3.7608559e+02 </wgt>
<wgt id='25'> +4.5568569e+02 </wgt>
<wgt id='26'> +5.5582935e+02 </wgt>
<wgt id='27'> +3.4643604e+02 </wgt>
<wgt id='28'> +4.5568569e+02 </wgt>
<wgt id='29'> +3.4026121e+02 </wgt>
<wgt id='30'> +4.6286093e+02 </wgt>
<wgt id='31'> +5.4570134e+02 </wgt>
<wgt id='32'> +3.6173046e+02 </wgt>
<wgt id='33'> +4.6286093e+02 </wgt>
<wgt id='34'> +3.5560171e+02 </wgt>
<wgt id='35'> +4.2428188e+02 </wgt>
<wgt id='36'> +5.0215970e+02 </wgt>
<wgt id='37'> +3.2652440e+02 </wgt>
<wgt id='38'> +4.2428188e+02 </wgt>
<wgt id='39'> +3.2091505e+02 </wgt>
<wgt id='40'> +3.8298789e+02 </wgt>
<wgt id='41'> +4.5751784e+02 </wgt>
<wgt id='42'> +2.9536135e+02 </wgt>
<wgt id='43'> +3.8298789e+02 </wgt>
<wgt id='44'> +2.9034599e+02 </wgt>
<wgt id='45'> +5.0481800e+02 </wgt>
<wgt id='46'> +5.1656902e+02 </wgt>
<wgt id='47'> +5.3208148e+02 </wgt>
<wgt id='48'> +5.0295458e+02 </wgt>
<wgt id='49'> +4.5778362e+02 </wgt>
<wgt id='50'> +5.8136191e+02 </wgt>
<wgt id='51'> +4.7221543e+02 </wgt>
<wgt id='52'> +4.5528748e+02 </wgt>
<wgt id='53'> +5.1588939e+02 </wgt>
<wgt id='54'> +5.3980583e+02 </wgt>
<wgt id='55'> +5.9424418e+02 </wgt>
<wgt id='56'> +4.9274782e+02 </wgt>
<wgt id='57'> +5.4205827e+02 </wgt>
<wgt id='58'> +4.4873638e+02 </wgt>
<wgt id='59'> +5.5023288e+02 </wgt>
<wgt id='60'> +5.0284317e+02 </wgt>
<wgt id='61'> +4.2374203e+02 </wgt>
<wgt id='62'> +4.5467155e+02 </wgt>
<wgt id='63'> +5.3884010e+02 </wgt>
<wgt id='64'> +5.0883466e+02 </wgt>
<wgt id='65'> +4.2983660e+02 </wgt>
<wgt id='66'> +5.1680580e+02 </wgt>
<wgt id='67'> +5.0808891e+02 </wgt>
<wgt id='68'> +6.3866167e+02 </wgt>
<wgt id='69'> +5.6212166e+02 </wgt>
<wgt id='70'> +5.7086877e+02 </wgt>
<wgt id='71'> +4.5475906e+02 </wgt>
<wgt id='72'> +4.5114158e+02 </wgt>
<wgt id='73'> +4.5222737e+02 </wgt>
<wgt id='74'> +5.9997307e+02 </wgt>
<wgt id='75'> +5.7024875e+02 </wgt>
<wgt id='76'> +5.2182352e+02 </wgt>
<wgt id='77'> +4.6719030e+02 </wgt>
<wgt id='78'> +4.2381226e+02 </wgt>
<wgt id='79'> +5.5751297e+02 </wgt>
<wgt id='80'> +4.3193822e+02 </wgt>
<wgt id='81'> +5.3627207e+02 </wgt>
<wgt id='82'> +5.0084490e+02 </wgt>
<wgt id='83'> +4.9548494e+02 </wgt>
<wgt id='84'> +4.7509614e+02 </wgt>
<wgt id='85'> +4.4085025e+02 </wgt>
<wgt id='86'> +5.4060883e+02 </wgt>
<wgt id='87'> +4.9206825e+02 </wgt>
<wgt id='88'> +4.9371943e+02 </wgt>
<wgt id='89'> +3.9849421e+02 </wgt>
<wgt id='90'> +4.5183543e+02 </wgt>
<wgt id='91'> +4.1738056e+02 </wgt>
<wgt id='92'> +4.7819560e+02 </wgt>
<wgt id='93'> +5.1563819e+02 </wgt>
<wgt id='94'> +4.5769292e+02 </wgt>
<wgt id='95'> +5.3334796e+02 </wgt>
<wgt id='96'> +5.2507596e+02 </wgt>
<wgt id='97'> +4.4503195e+02 </wgt>
<wgt id='98'> +5.6426899e+02 </wgt>
<wgt id='99'> +4.0975438e+02 </wgt>
<wgt id='100'> +3.6490465e+02 </wgt>
<wgt id='101'> +5.9253947e+02 </wgt>
<wgt id='102'> +5.7759208e+02 </wgt>
<wgt id='103'> +4.6121804e+02 </wgt>
<wgt id='104'> +5.4954044e+02 </wgt>
<wgt id='105'> +5.1476414e+02 </wgt>
<wgt id='106'> +5.0392855e+02 </wgt>
<wgt id='107'> +4.9978348e+02 </wgt>
<wgt id='108'> +4.8004910e+02 </wgt>
<wgt id='109'> +5.0547236e+02 </wgt>
<wgt id='110'> +4.5021290e+02 </wgt>
<wgt id='111'> +4.8659125e+02 </wgt>
<wgt id='112'> +5.3528633e+02 </wgt>
<wgt id='113'> +5.6022311e+02 </wgt>
<wgt id='114'> +5.2755174e+02 </wgt>
<wgt id='115'> +4.6346507e+02 </wgt>
<wgt id='116'> +5.6181634e+02 </wgt>
<wgt id='117'> +4.9748050e+02 </wgt>
<wgt id='118'> +5.1250364e+02 </wgt>
<wgt id='119'> +5.6952654e+02 </wgt>
<wgt id='120'> +5.0415390e+02 </wgt>
<wgt id='121'> +4.8950677e+02 </wgt>
<wgt id='122'> +4.8993135e+02 </wgt>
<wgt id='123'> +4.6938878e+02 </wgt>
<wgt id='124'> +5.6564462e+02 </wgt>
<wgt id='125'> +6.5758229e+02 </wgt>
<wgt id='126'> +4.8696084e+02 </wgt>
<wgt id='127'> +4.7089861e+02 </wgt>
<wgt id='128'> +4.9711403e+02 </wgt>
<wgt id='129'> +4.9667082e+02 </wgt>
<wgt id='130'> +5.1075778e+02 </wgt>
<wgt id='131'> +4.4735209e+02 </wgt>
<wgt id='132'> +5.5093968e+02 </wgt>
<wgt id='133'> +5.5792772e+02 </wgt>
<wgt id='134'> +5.4390338e+02 </wgt>
<wgt id='135'> +4.7553115e+02 </wgt>
<wgt id='136'> +6.1041309e+02 </wgt>
<wgt id='137'> +5.5141997e+02 </wgt>
<wgt id='138'> +5.2935382e+02 </wgt>
<wgt id='139'> +5.2155618e+02 </wgt>
<wgt id='140'> +4.8737118e+02 </wgt>
<wgt id='141'> +5.9790272e+02 </wgt>
<wgt id='142'> +3.1618351e+02 </wgt>
<wgt id='143'> +5.1527839e+02 </wgt>
<wgt id='144'> +4.4927055e+02 </wgt>
<wgt id='145'> +4.5591862e+02 </wgt>
</rwgt>
</event>
<event>
 4      1 +5.0481800e+02 1.76037400e+02 7.54677100e-03 1.17169400e-01
       21 -1    0    0  503  502 +0.0000000000e+00 +0.0000000000e+00 +1.1488991168e+02 1.1488991168e+02 0.0000000000e+00 0.0000e+00 -1.0000e+00
       21 -1    0    0  501  503 -0.0000000000e+00 -0.0000000000e+00 -5.8188565707e+02 5.8188565707e+02 0.0000000000e+00 0.0000e+00 -1.0000e+00
        6  1    1    2  501    0 -2.0233055473e+01 +2.5510601936e+01 -4.8866823696e+02 5.1940910000e+02 1.7300000000e+02 0.0000e+00 -1.0000e+00
       -6  1    1    2    0  502 +2.0233055473e+01 -2.5510601936e+01 +2.1672491577e+01 1.7736646875e+02 1.7300000000e+02 0.0000e+00 -1.0000e+00
<mgrwt>
<rscale>  2 0.17603740E+03</rscale>
<asrwt>0</asrwt>
<pdfrwt beam="1">  1       21 0.17675371E-01 0.17603740E+03</pdfrwt>
<pdfrwt beam="2">  1       21 0.89520870E-01 0.17603740E+03</pdfrwt>
<totfact> 0.31170715E+04</totfact>
</mgrwt>
<rwgt>
<wgt id='1'> +6.6101485e+02 </wgt>
<wgt id='2'> +6.5191172e+02 </wgt>
<wgt id='3'> +5.0481800e+02 </wgt>
<wgt id='4'> +6.6101484e+02 </wgt>
<wgt id='5'> +4.3792741e+02 </wgt>
<wgt id='6'> +6.2210070e+02 </wgt>
<wgt id='7'> +6.1310455e+02 </wgt>
<wgt id='8'> +4.6691871e+02 </wgt>
<wgt id='9'> +6.2210069e+02 </wgt>
<wgt id='10'> +4.0484262e+02 </wgt>
<wgt id='11'> +5.7539639e+02 </wgt>
<wgt id='12'> +5.6687879e+02 </wgt>
<wgt id='13'> +4.3183269e+02 </wgt>
<wgt id='14'> +5.7539638e+02 </wgt>
<wgt id='15'> +3.7469612e+02 </wgt>
<wgt id='16'> +5.3639579e+02 </wgt>
<wgt id='17'> +5.2990225e+02 </wgt>
<wgt id='18'> +4.2384252e+02 </wgt>
<wgt id='19'> +5.3639578e+02 </wgt>
<wgt id='20'> +3.7093934e+02 </wgt>
<wgt id='21'> +4.9835809e+02 </wgt>
<wgt id='22'> +3.9202247e+02 </wgt>
<wgt id='23'> +5.0481800e+02 </wgt>
<wgt id='24'> +3.4291541e+02 </wgt>
<wgt id='25'> +4.6691871e+02 </wgt>
<wgt id='26'> +4.6078378e+02 </wgt>
<wgt id='27'> +3.6256444e+02 </wgt>
<wgt id='28'> +4.6691871e+02 </wgt>
<wgt id='29'> +3.1738030e+02 </wgt>
<wgt id='30'> +4.5035506e+02 </wgt>
<wgt id='31'> +4.4539435e+02 </wgt>
<wgt id='32'> +3.6114296e+02 </wgt>
<wgt id='33'> +4.5035506e+02 </wgt>
<wgt id='34'> +3.1822484e+02 </wgt>
<wgt id='35'> +4.2384252e+02 </wgt>
<wgt id='36'> +4.1888080e+02 </wgt>
<wgt id='37'> +3.3403009e+02 </wgt>
<wgt id='38'> +4.2384252e+02 </wgt>
<wgt id='39'> +2.9418341e+02 </wgt>
<wgt id='40'> +3.9202248e+02 </wgt>
<wgt id='41'> +3.8729878e+02 </wgt>
<wgt id='42'> +3.0892983e+02 </wgt>
<wgt id='43'> +3.9202247e+02 </wgt>
<wgt id='44'> +2.7227712e+02 </wgt>
<wgt id='45'> +5.0481800e+02 </wgt>
<wgt id='46'> +5.1361195e+02 </wgt>
<wgt id='47'> +5.2234674e+02 </wgt>
<wgt id='48'> +5.0875226e+02 </wgt>
<wgt id='49'> +4.9860204e+02 </wgt>
<wgt id='50'> +6.0346128e+02 </wgt>
<wgt id='51'> +4.9282941e+02 </wgt>
<wgt id='52'> +5.0369373e+02 </wgt>
<wgt id='53'> +5.0145887e+02 </wgt>
<wgt id='54'> +5.1157168e+02 </wgt>
<wgt id='55'> +4.6833553e+02 </wgt>
<wgt id='56'> +4.6125134e+02 </wgt>
<wgt id='57'> +5.0189145e+02 </wgt>
<wgt id='58'> +4.9718092e+02 </wgt>
<wgt id='59'> +5.1675420e+02 </wgt>
<wgt id='60'> +4.9817448e+02 </wgt>
<wgt id='61'> +4.5321980e+02 </wgt>
<wgt id='62'> +4.9605464e+02 </wgt>
<wgt id='63'> +5.0646694e+02 </wgt>
<wgt id='64'> +4.9539401e+02 </wgt>
<wgt id='65'> +5.7363030e+02 </wgt>
<wgt id='66'> +4.9494363e+02 </wgt>
<wgt id='67'> +5.0826058e+02 </wgt>
<wgt id='68'> +5.5422552e+02 </wgt>
<wgt id='69'> +5.0211343e+02 </wgt>
<wgt id='70'> +4.9732473e+02 </wgt>
<wgt id='71'> +5.1109845e+02 </wgt>
<wgt id='72'> +4.8442257e+02 </wgt>
<wgt id='73'> +4.9071366e+02 </wgt>
<wgt id='74'> +5.3149490e+02 </wgt>
<wgt id='75'> +5.1707848e+02 </wgt>
<wgt id='76'> +4.9534015e+02 </wgt>
<wgt id='77'> +4.9255700e+02 </wgt>
<wgt id='78'> +4.8790314e+02 </wgt>
<wgt id='79'> +4.9475027e+02 </wgt>
<wgt id='80'> +4.9275915e+02 </wgt>
<wgt id='81'> +4.9470561e+02 </wgt>
<wgt id='82'> +5.0316609e+02 </wgt>
<wgt id='83'> +5.1318303e+02 </wgt>
<wgt id='84'> +5.4747978e+02 </wgt>
<wgt id='85'> +5.1964232e+02 </wgt>
<wgt id='86'> +5.0645316e+02 </wgt>
<wgt id='87'> +5.0766167e+02 </wgt>
<wgt id='88'> +5.0948332e+02 </wgt>
<wgt id='89'> +5.1335515e+02 </wgt>
<wgt id='90'> +5.1368614e+02 </wgt>
<wgt id='91'> +5.2284050e+02 </wgt>
<wgt id='92'> +4.5904040e+02 </wgt>
<wgt id='93'> +5.0101579e+02 </wgt>
<wgt id='94'> +4.9318560e+02 </wgt>
<wgt id='95'> +4.9347320e+02 </wgt>
<wgt id='96'> +5.4459557e+02 </wgt>
<wgt id='97'> +5.0246615e+02 </wgt>
<wgt id='98'> +4.9015201e+02 </wgt>
<wgt id='99'> +4.8084681e+02 </wgt>
<wgt id='100'> +4.7688595e+02 </wgt>
<wgt id='101'> +5.5215750e+02 </wgt>
<wgt id='102'> +5.1228891e+02 </wgt>
<wgt id='103'> +5.4653502e+02 </wgt>
<wgt id='104'> +5.0867739e+02 </wgt>
<wgt id='105'> +5.2176505e+02 </wgt>
<wgt id='106'> +4.5918919e+02 </wgt>
<wgt id='107'> +4.8439805e+02 </wgt>
<wgt id='108'> +4.4480910e+02 </wgt>
<wgt id='109'> +4.7350471e+02 </wgt>
<wgt id='110'> +5.0122536e+02 </wgt>
<wgt id='111'> +4.9038198e+02 </wgt>
<wgt id='112'> +4.7792716e+02 </wgt>
<wgt id='113'> +4.6533357e+02 </wgt>
<wgt id='114'> +4.9572144e+02 </wgt>
<wgt id='115'> +4.8483107e+02 </wgt>
<wgt id='116'> +5.1876783e+02 </wgt>
<wgt id='117'> +5.0236843e+02 </wgt>
<wgt id='118'> +5.2756678e+02 </wgt>
<wgt id='119'> +4.9012356e+02 </wgt>
<wgt id='120'> +4.9461097e+02 </wgt>
<wgt id='121'> +4.9324136e+02 </wgt>
<wgt id='122'> +4.9874462e+02 </wgt>
<wgt id='123'> +5.0947934e+02 </wgt>
<wgt id='124'> +5.5537170e+02 </wgt>
<wgt id='125'> +5.5937641e+02 </wgt>
<wgt id='126'> +5.2234755e+02 </wgt>
<wgt id='127'> +5.1913941e+02 </wgt>
<wgt id='128'> +4.6014484e+02 </wgt>
<wgt id='129'> +5.6909286e+02 </wgt>
<wgt id='130'> +5.0287664e+02 </wgt>
<wgt id='131'> +5.3050583e+02 </wgt>
<wgt id='132'> +5.2178206e+02 </wgt>
<wgt id='133'> +5.1489929e+02 </wgt>
<wgt id='134'> +4.8578143e+02 </wgt>
<wgt id='135'> +5.1364610e+02 </wgt>
<wgt id='136'> +5.1076634e+02 </wgt>
<wgt id='137'> +4.8139620e+02 </wgt>
<wgt id='138'> +4.7040085e+02 </wgt>
<wgt id='139'> +5.1932557e+02 </wgt>
<wgt id='140'> +5.2449618e+02 </wgt>
<wgt id='141'> +5.1115109e+02 </wgt>
<wgt id='142'> +4.8250008e+02 </wgt>
<wgt id='143'> +5.1091251e+02 </wgt>
<wgt id='144'> +4.9615775e+02 </wgt>
<wgt id='145'> +5.0249542e+02 </wgt>
</rwgt>
</event>
<event>
 4      1 +5.0481800e+02 1.75868900e+02 7.54677100e-03 1.17186200e-01
       21 -1    0    0  501  502 +0.0000000000e+00 +0.0000000000e+00 +3.0712613787e+02 3.0712613787e+02 0.0000000000e+00 0.0000e+00 -1.0000e+00
       21 -1    0    0  502  503 -0.0000000000e+00 -0.0000000000e+00 -1.6568121855e+02 1.6568121855e+02 0.0000000000e+00 0.0000e+00 -1.0000e+00
        6  1    1    2  501    0 +9.9333945760e+00 +3.0036609552e+01 +2.1876510434e+02 2.8069207527e+02 1.7300000000e+02 0.0000e+00 -1.0000e+00
       -6  1    1    2    0  503 -9.9333945760e+00 -3.0036609552e+01 -7.7320185016e+01 1.9211528115e+02 1.7300000000e+02 0.0000e+00 -1.0000e+00
<mgrwt>
<rscale>  2 0.17586890E+03</rscale>
<asrwt>0</asrwt>
<pdfrwt beam="1">  1       21 0.47250175E-01 0.17586890E+03</pdfrwt>
<pdfrwt beam="2">  1       21 0.25489418E-01 0.17586890E+03</pdfrwt>
<totfact> 0.63015312E+04</totfact>
</mgrwt>
<rwgt>
<wgt id='1'> +6.5093795e+02 </wgt>
<wgt id='2'> +7.7229678e+02 </wgt>
<wgt id='3'> +5.0481800e+02 </wgt>
<wgt id='4'> +6.5093795e+02 </wgt>
<wgt id='5'> +4.6254803e+02 </wgt>
<wgt id='6'> +6.2212860e+02 </wgt>
<wgt id='7'> +7.4219391e+02 </wgt>
<wgt id='8'> +4.7347308e+02 </wgt>
<wgt id='9'> +6.2212860e+02 </wgt>
<wgt id='10'> +4.3333493e+02 </wgt>
<wgt id='11'> +5.8349969e+02 </wgt>
<wgt id='12'> +7.0428518e+02 </wgt>
<wgt id='13'> +4.4351086e+02 </wgt>
<wgt id='14'> +5.8349968e+02 </wgt>
<wgt id='15'> +4.0594180e+02 </wgt>
<wgt id='16'> +5.2819497e+02 </wgt>
<wgt id='17'> +6.1677021e+02 </wgt>
<wgt id='18'> +4.2382896e+02 </wgt>
<wgt id='19'> +5.2819497e+02 </wgt>
<wgt id='20'> +3.9072542e+02 </wgt>
<wgt id='21'> +5.9272951e+02 </wgt>
<wgt id='22'> +3.9751277e+02 </wgt>
<wgt id='23'> +5.0481800e+02 </wgt>
<wgt id='24'> +3.6604842e+02 </wgt>
<wgt id='25'> +4.7347308e+02 </wgt>
<wgt id='26'> +5.6245491e+02 </wgt>
<wgt id='27'> +3.7235746e+02 </wgt>
<wgt id='28'> +4.7347308e+02 </wgt>
<wgt id='29'> +3.4290878e+02 </wgt>
<wgt id='30'> +4.4345551e+02 </wgt>
<wgt id='31'> +5.0700051e+02 </wgt>
<wgt id='32'> +3.6112501e+02 </wgt>
<wgt id='33'> +4.4345551e+02 </wgt>
<wgt id='34'> +3.3441100e+02 </wgt>
<wgt id='35'> +4.2382896e+02 </wgt>
<wgt id='36'> +4.8723846e+02 </wgt>
<wgt id='37'> +3.3870221e+02 </wgt>
<wgt id='38'> +4.2382896e+02 </wgt>
<wgt id='39'> +3.1329065e+02 </wgt>
<wgt id='40'> +3.9751277e+02 </wgt>
<wgt id='41'> +4.6235198e+02 </wgt>
<wgt id='42'> +3.1726853e+02 </wgt>
<wgt id='43'> +3.9751277e+02 </wgt>
<wgt id='44'> +2.9348608e+02 </wgt>
<wgt id='45'> +5.0481800e+02 </wgt>
<wgt id='46'> +5.0452130e+02 </wgt>
<wgt id='47'> +5.2291309e+02 </wgt>
<wgt id='48'> +5.0619280e+02 </wgt>
<wgt id='49'> +5.0411151e+02 </wgt>
<wgt id='50'> +5.8968173e+02 </wgt>
<wgt id='51'> +4.9509799e+02 </wgt>
<wgt id='52'> +5.0204369e+02 </wgt>
<wgt id='53'> +5.1118405e+02 </wgt>
<wgt id='54'> +5.0760322e+02 </wgt>
<wgt id='55'> +4.4975573e+02 </wgt>
<wgt id='56'> +4.6947082e+02 </wgt>
<wgt id='57'> +4.9074878e+02 </wgt>
<wgt id='58'> +5.0879290e+02 </wgt>
<wgt id='59'> +4.9658318e+02 </wgt>
<wgt id='60'> +4.8343942e+02 </wgt>
<wgt id='61'> +4.9296765e+02 </wgt>
<wgt id='62'> +4.9828181e+02 </wgt>
<wgt id='63'> +5.0514324e+02 </wgt>
<wgt id='64'> +5.0033896e+02 </wgt>
<wgt id='65'> +5.9758906e+02 </wgt>
<wgt id='66'> +4.9242486e+02 </wgt>
<wgt id='67'> +5.0939687e+02 </wgt>
<wgt id='68'> +5.4047881e+02 </wgt>
<wgt id='69'> +4.9167895e+02 </wgt>
<wgt id='70'> +4.9614544e+02 </wgt>
<wgt id='71'> +5.1465472e+02 </wgt>
<wgt id='72'> +4.9094665e+02 </wgt>
<wgt id='73'> +4.9852264e+02 </wgt>
<wgt id='74'> +5.1948717e+02 </wgt>
<wgt id='75'> +5.1597104e+02 </wgt>
<wgt id='76'> +4.8960800e+02 </wgt>
<wgt id='77'> +4.8586123e+02 </wgt>
<wgt id='78'> +5.0593934e+02 </wgt>
<wgt id='79'> +4.8336719e+02 </wgt>
<wgt id='80'> +5.0076329e+02 </wgt>
<wgt id='81'> +4.9532726e+02 </wgt>
<wgt id='82'> +5.1926796e+02 </wgt>
<wgt id='83'> +5.1547673e+02 </wgt>
<wgt id='84'> +5.5537735e+02 </wgt>
<wgt id='85'> +5.3229805e+02 </wgt>
<wgt id='86'> +5.0121007e+02 </wgt>
<wgt id='87'> +5.0475879e+02 </wgt>
<wgt id='88'> +5.1371876e+02 </wgt>
<wgt id='89'> +5.1735438e+02 </wgt>
<wgt id='90'> +5.1053233e+02 </wgt>
<wgt id='91'> +5.3822114e+02 </wgt>
<wgt id='92'> +4.6409109e+02 </wgt>
<wgt id='93'> +4.9581895e+02 </wgt>
<wgt id='94'> +5.0253060e+02 </wgt>
<wgt id='95'> +4.8358395e+02 </wgt>
<wgt id='96'> +5.4602974e+02 </wgt>
<wgt id='97'> +5.1323644e+02 </wgt>
<wgt id='98'> +4.8073304e+02 </wgt>
<wgt id='99'> +4.9053775e+02 </wgt>
<wgt id='100'> +5.0203873e+02 </wgt>
<wgt id='101'> +5.2956124e+02 </wgt>
<wgt id='102'> +4.8895701e+02 </wgt>
<wgt id='103'> +5.4908211e+02 </wgt>
<wgt id='104'> +5.0363290e+02 </wgt>
<wgt id='105'> +5.2519757e+02 </wgt>
<wgt id='106'> +4.6404574e+02 </wgt>
<wgt id='107'> +4.9918153e+02 </wgt>
<wgt id='108'> +4.5193727e+02 </wgt>
<wgt id='109'> +4.7395534e+02 </wgt>
<wgt id='110'> +5.0611126e+02 </wgt>
<wgt id='111'> +4.9153018e+02 </wgt>
<wgt id='112'> +4.8151941e+02 </wgt>
<wgt id='113'> +4.6277293e+02 </wgt>
<wgt id='114'> +5.0401126e+02 </wgt>
<wgt id='115'> +5.0663456e+02 </wgt>
<wgt id='116'> +5.0363364e+02 </wgt>
<wgt id='117'> +5.1205113e+02 </wgt>
<wgt id='118'> +5.1720572e+02 </wgt>
<wgt id='119'> +4.8472900e+02 </wgt>
<wgt id='120'> +5.0320830e+02 </wgt>
<wgt id='121'> +4.9048626e+02 </wgt>
<wgt id='122'> +4.9819235e+02 </wgt>
<wgt id='123'> +5.1145075e+02 </wgt>
<wgt id='124'> +5.3862736e+02 </wgt>
<wgt id='125'> +5.3966968e+02 </wgt>
<wgt id='126'> +5.2452342e+02 </wgt>
<wgt id='127'> +5.2004931e+02 </wgt>
<wgt id='128'> +4.6853485e+02 </wgt>
<wgt id='129'> +5.7272224e+02 </wgt>
<wgt id='130'> +5.0896508e+02 </wgt>
<wgt id='131'> +5.4177202e+02 </wgt>
<wgt id='132'> +4.9834938e+02 </wgt>
<wgt id='133'> +5.0062484e+02 </wgt>
<wgt id='134'> +4.7383818e+02 </wgt>
<wgt id='135'> +5.1830036e+02 </wgt>
<wgt id='136'> +4.8257108e+02 </wgt>
<wgt id='137'> +4.7455971e+02 </wgt>
<wgt id='138'> +4.5768399e+02 </wgt>
<wgt id='139'> +5.1450772e+02 </wgt>
<wgt id='140'> +5.3771717e+02 </wgt>
<wgt id='141'> +5.0357079e+02 </wgt>
<wgt id='142'> +5.0957595e+02 </wgt>
<wgt id='143'> +4.9981457e+02 </wgt>
<wgt id='144'> +5.0486919e+02 </wgt>
<wgt id='145'> +5.0613762e+02 </wgt>
</rwgt>
</event>
<event>
 4      1 +5.0481800e+02 4.13658900e+02 7.54677100e-03 1.03915000e-01
       21 -1    0    0  503  502 +0.0000000000e+00 +0.0000000000e+00 +6.4705131523e+02 6.4705131523e+02 0.0000000000e+00 0.0000e+00 -1.0000e+00
       21 -1    0    0  501  503 -0.0000000000e+00 -0.0000000000e+00 -5.6187248250e+02 5.6187248250e+02 0.0000000000e+00 0.0000e+00 1.0000e+00
        6  1    1    2  501    0 -3.5684019944e+02 +1.1768516740e+02 -3.9719092418e+02 5.7347568110e+02 1.7300000000e+02 0.0000e+00 1.0000e+00
       -6  1    1    2    0  502 +3.5684019944e+02 -1.1768516740e+02 +4.8236975691e+02 6.3544811664e+02 1.7300000000e+02 0.0000e+00 -1.0000e+00
<mgrwt>
<rscale>  2 0.41365895E+03</rscale>
<asrwt>0</asrwt>
<pdfrwt beam="1">  1       21 0.99546356E-01 0.41365895E+03</pdfrwt>
<pdfrwt beam="2">  1       21 0.86441921E-01 0.41365895E+03</pdfrwt>
<totfact> 0.82274141E+02</totfact>
</mgrwt>
<rwgt>
<wgt id='1'> +6.8646563e+02 </wgt>
<wgt id='2'> +5.1644579e+02 </wgt>
<wgt id='3'> +5.0481800e+02 </wgt>
<wgt id='4'> +6.8646564e+02 </wgt>
<wgt id='5'> +4.3081265e+02 </wgt>
<wgt id='6'> +5.9860334e+02 </wgt>
<wgt id='7'> +4.5319330e+02 </wgt>
<wgt id='8'> +4.4321083e+02 </wgt>
<wgt id='9'> +5.9860334e+02 </wgt>
<wgt id='10'> +3.7955502e+02 </wgt>
<wgt id='11'> +5.2555075e+02 </wgt>
<wgt id='12'> +4.0021912e+02 </wgt>
<wgt id='13'> +3.9158745e+02 </wgt>
<wgt id='14'> +5.2555075e+02 </wgt>
<wgt id='15'> +3.3644719e+02 </wgt>
<wgt id='16'> +5.7891460e+02 </wgt>
<wgt id='17'> +4.4091523e+02 </wgt>
<wgt id='18'> +4.3140017e+02 </wgt>
<wgt id='19'> +5.7891460e+02 </wgt>
<wgt id='20'> +3.7053701e+02 </wgt>
<wgt id='21'> +3.8691346e+02 </wgt>
<wgt id='22'> +3.7875279e+02 </wgt>
<wgt id='23'> +5.0481800e+02 </wgt>
<wgt id='24'> +3.2645092e+02 </wgt>
<wgt id='25'> +4.4321083e+02 </wgt>
<wgt id='26'> +3.4168679e+02 </wgt>
<wgt id='27'> +3.3463722e+02 </wgt>
<wgt id='28'> +4.4321083e+02 </wgt>
<wgt id='29'> +2.8937437e+02 </wgt>
<wgt id='30'> +4.9472058e+02 </wgt>
<wgt id='31'> +3.8081993e+02 </wgt>
<wgt id='32'> +3.7290568e+02 </wgt>
<wgt id='33'> +4.9472058e+02 </wgt>
<wgt id='34'> +3.2207881e+02 </wgt>
<wgt id='35'> +4.3140017e+02 </wgt>
<wgt id='36'> +3.3417842e+02 </wgt>
<wgt id='37'> +3.2739687e+02 </wgt>
<wgt id='38'> +4.3140017e+02 </wgt>
<wgt id='39'> +2.8375822e+02 </wgt>
<wgt id='40'> +3.7875279e+02 </wgt>
<wgt id='41'> +2.9511601e+02 </wgt>
<wgt id='42'> +2.8926303e+02 </wgt>
<wgt id='43'> +3.7875279e+02 </wgt>
<wgt id='44'> +2.5153048e+02 </wgt>
<wgt id='45'> +5.0481800e+02 </wgt>
<wgt id='46'> +5.3645890e+02 </wgt>
<wgt id='47'> +5.3185273e+02 </wgt>
<wgt id='48'> +5.1959679e+02 </wgt>
<wgt id='49'> +4.8761763e+02 </wgt>
<wgt id='50'> +6.5817495e+02 </wgt>
<wgt id='51'> +4.8879155e+02 </wgt>
<wgt id='52'> +5.0232572e+02 </wgt>
<wgt id='53'> +4.8515085e+02 </wgt>
<wgt id='54'> +5.1929754e+02 </wgt>
<wgt id='55'> +4.9420450e+02 </wgt>
<wgt id='56'> +4.4309999e+02 </wgt>
<wgt id='57'> +5.1546777e+02 </wgt>
<wgt id='58'> +4.6755687e+02 </wgt>
<wgt id='59'> +5.5344806e+02 </wgt>
<wgt id='60'> +5.2279069e+02 </wgt>
<wgt id='61'> +3.9780892e+02 </wgt>
<wgt id='62'> +4.9254398e+02 </wgt>
<wgt id='63'> +5.1087683e+02 </wgt>
<wgt id='64'> +4.8049722e+02 </wgt>
<wgt id='65'> +5.4031264e+02 </wgt>
<wgt id='66'> +5.0369122e+02 </wgt>
<wgt id='67'> +5.0689847e+02 </wgt>
<wgt id='68'> +5.9171762e+02 </wgt>
<wgt id='69'> +5.3870072e+02 </wgt>
<wgt id='70'> +5.0198187e+02 </wgt>
<wgt id='71'> +5.0194059e+02 </wgt>
<wgt id='72'> +4.5019295e+02 </wgt>
<wgt id='73'> +4.7096751e+02 </wgt>
<wgt id='74'> +5.6450209e+02 </wgt>
<wgt id='75'> +5.2639513e+02 </wgt>
<wgt id='76'> +4.9965381e+02 </wgt>
<wgt id='77'> +5.0394810e+02 </wgt>
<wgt id='78'> +4.5179001e+02 </wgt>
<wgt id='79'> +5.1956985e+02 </wgt>
<wgt id='80'> +4.7469606e+02 </wgt>
<wgt id='81'> +4.9223464e+02 </wgt>
<wgt id='82'> +4.7956221e+02 </wgt>
<wgt id='83'> +5.1805727e+02 </wgt>
<wgt id='84'> +5.4256836e+02 </wgt>
<wgt id='85'> +4.9999818e+02 </wgt>
<wgt id='86'> +5.2407462e+02 </wgt>
<wgt id='87'> +5.1331262e+02 </wgt>
<wgt id='88'> +5.0997421e+02 </wgt>
<wgt id='89'> +5.0309054e+02 </wgt>
<wgt id='90'> +5.1422297e+02 </wgt>
<wgt id='91'> +4.9544591e+02 </wgt>
<wgt id='92'> +4.3078053e+02 </wgt>
<wgt id='93'> +5.1458078e+02 </wgt>
<wgt id='94'> +4.7008613e+02 </wgt>
<wgt id='95'> +5.0037139e+02 </wgt>
<wgt id='96'> +5.6012140e+02 </wgt>
<wgt id='97'> +4.7921576e+02 </wgt>
<wgt id='98'> +5.1017163e+02 </wgt>
<wgt id='99'> +4.5779360e+02 </wgt>
<wgt id='100'> +4.2220148e+02 </wgt>
<wgt id='101'> +6.0922390e+02 </wgt>
<wgt id='102'> +5.6865247e+02 </wgt>
<wgt id='103'> +5.4538414e+02 </wgt>
<wgt id='104'> +5.2841802e+02 </wgt>
<wgt id='105'> +5.0761013e+02 </wgt>
<wgt id='106'> +4.3691745e+02 </wgt>
<wgt id='107'> +4.5003516e+02 </wgt>
<wgt id='108'> +4.2261138e+02 </wgt>
<wgt id='109'> +4.6322329e+02 </wgt>
<wgt id='110'> +4.8529267e+02 </wgt>
<wgt id='111'> +4.8186601e+02 </wgt>
<wgt id='112'> +4.6969824e+02 </wgt>
<wgt id='113'> +4.6505651e+02 </wgt>
<wgt id='114'> +4.7088632e+02 </wgt>
<wgt id='115'> +4.4648097e+02 </wgt>
<wgt id='116'> +5.6117863e+02 </wgt>
<wgt id='117'> +4.8594298e+02 </wgt>
<wgt id='118'> +5.5495861e+02 </wgt>
<wgt id='119'> +4.9516442e+02 </wgt>
<wgt id='120'> +4.7895347e+02 </wgt>
<wgt id='121'> +4.8823334e+02 </wgt>
<wgt id='122'> +4.9541255e+02 </wgt>
<wgt id='123'> +5.1091366e+02 </wgt>
<wgt id='124'> +5.9789464e+02 </wgt>
<wgt id='125'> +6.1088837e+02 </wgt>
<wgt id='126'> +5.2567287e+02 </wgt>
<wgt id='127'> +5.1973380e+02 </wgt>
<wgt id='128'> +4.4740129e+02 </wgt>
<wgt id='129'> +5.6430929e+02 </wgt>
<wgt id='130'> +5.0220259e+02 </wgt>
<wgt id='131'> +5.0982284e+02 </wgt>
<wgt id='132'> +5.6037603e+02 </wgt>
<wgt id='133'> +5.4855975e+02 </wgt>
<wgt id='134'> +5.0569541e+02 </wgt>
<wgt id='135'> +5.0434569e+02 </wgt>
<wgt id='136'> +5.5993077e+02 </wgt>
<wgt id='137'> +5.0249007e+02 </wgt>
<wgt id='138'> +5.1176055e+02 </wgt>
<wgt id='139'> +5.3046884e+02 </wgt>
<wgt id='140'> +4.9979865e+02 </wgt>
<wgt id='141'> +5.3282775e+02 </wgt>
<wgt id='142'> +4.2811751e+02 </wgt>
<wgt id='143'> +5.2842546e+02 </wgt>
<wgt id='144'> +4.7166081e+02 </wgt>
<wgt id='145'> +4.9460113e+02 </wgt>
</rwgt>
</event>
<event>
 4      1 +5.0481800e+02 1.74980100e+02 7.54677100e-03 1.17275200e-01
        2 -1    0    0  502    0 +0.0000000000e+00 +0.0000000000e+00 +2.9070905980e+02 2.9070905980e+02 0.0000000000e+00 0.0000e+00 1.0000e+00
       -2 -1    0    0    0  501 -0.0000000000e+00 -0.0000000000e+00 -1.1699307521e+02 1.1699307521e+02 0.0000000000e+00 0.0000e+00 -1.0000e+00
        6  1    1    2  502    0 +1.3006427543e+01 -2.2800612877e+01 +1.5124376513e+02 2.3128491433e+02 1.7300000000e+02 0.0000e+00 1.0000e+00
       -6  1    1    2    0  501 -1.3006427543e+01 +2.2800612877e+01 +2.2472219463e+01 1.7641722068e+02 1.7300000000e+02 0.0000e+00 -1.0000e+00
<mgrwt>
<rscale>  2 0.17498010E+03</rscale>
<asrwt>0</asrwt>
<pdfrwt beam="1">  1        2 0.44724471E-01 0.17498010E+03</pdfrwt>
<pdfrwt beam="2">  1       -2 0.17998935E-01 0.17498010E+03</pdfrwt>
<totfact> 0.27934500E+03</totfact>
</mgrwt>
<rwgt>
<wgt id='1'> +6.0285177e+02 </wgt>
<wgt id='2'> +6.0416276e+02 </wgt>
<wgt id='3'> +5.0481800e+02 </wgt>
<wgt id='4'> +6.0285177e+02 </wgt>
<wgt id='5'> +4.9867370e+02 </wgt>
<wgt id='6'> +6.2227502e+02 </wgt>
<wgt id='7'> +6.2369789e+02 </wgt>
<wgt id='8'> +5.1670804e+02 </wgt>
<wgt id='9'> +6.2227502e+02 </wgt>
<wgt id='10'> +5.1013056e+02 </wgt>
<wgt id='11'> +6.3693154e+02 </wgt>
<wgt id='12'> +6.3844419e+02 </wgt>
<wgt id='13'> +5.2537637e+02 </wgt>
<wgt id='14'> +6.3693154e+02 </wgt>
<wgt id='15'> +5.1846244e+02 </wgt>
<wgt id='16'> +4.8906097e+02 </wgt>
<wgt id='17'> +4.8994295e+02 </wgt>
<wgt id='18'> +4.2375675e+02 </wgt>
<wgt id='19'> +4.8906097e+02 </wgt>
<wgt id='20'> +4.1930292e+02 </wgt>
<wgt id='21'> +5.0578487e+02 </wgt>
<wgt id='22'> +4.3373755e+02 </wgt>
<wgt id='23'> +5.0481800e+02 </wgt>
<wgt id='24'> +4.2893626e+02 </wgt>
<wgt id='25'> +5.1670804e+02 </wgt>
<wgt id='26'> +5.1774331e+02 </wgt>
<wgt id='27'> +4.4101396e+02 </wgt>
<wgt id='28'> +5.1670804e+02 </wgt>
<wgt id='29'> +4.3594201e+02 </wgt>
<wgt id='30'> +4.1052991e+02 </wgt>
<wgt id='31'> +4.1115630e+02 </wgt>
<wgt id='32'> +3.6102964e+02 </wgt>
<wgt id='33'> +4.1052991e+02 </wgt>
<wgt id='34'> +3.5757931e+02 </wgt>
<wgt id='35'> +4.2375675e+02 </wgt>
<wgt id='36'> +4.2445072e+02 </wgt>
<wgt id='37'> +3.6953301e+02 </wgt>
<wgt id='38'> +4.2375675e+02 </wgt>
<wgt id='39'> +3.6579457e+02 </wgt>
<wgt id='40'> +4.3373755e+02 </wgt>
<wgt id='41'> +4.3448615e+02 </wgt>
<wgt id='42'> +3.7573232e+02 </wgt>
<wgt id='43'> +4.3373755e+02 </wgt>
<wgt id='44'> +3.7176904e+02 </wgt>
<wgt id='45'> +5.0481800e+02 </wgt>
<wgt id='46'> +5.0689978e+02 </wgt>
<wgt id='47'> +4.8902367e+02 </wgt>
<wgt id='48'> +4.9405076e+02 </wgt>
<wgt id='49'> +5.0198865e+02 </wgt>
<wgt id='50'> +4.6638725e+02 </wgt>
<wgt id='51'> +5.1436986e+02 </wgt>
<wgt id='52'> +4.9105895e+02 </wgt>
<wgt id='53'> +5.1560299e+02 </wgt>
<wgt id='54'> +4.9521475e+02 </wgt>
<wgt id='55'> +4.8731368e+02 </wgt>
<wgt id='56'> +5.3676448e+02 </wgt>
<wgt id='57'> +4.9563086e+02 </wgt>
<wgt id='58'> +5.1549117e+02 </wgt>
<wgt id='59'> +4.9502834e+02 </wgt>
<wgt id='60'> +5.0394063e+02 </wgt>
<wgt id='61'> +5.4924859e+02 </wgt>
<wgt id='62'> +5.3401011e+02 </wgt>
<wgt id='63'> +5.1701742e+02 </wgt>
<wgt id='64'> +4.9933887e+02 </wgt>
<wgt id='65'> +4.7907784e+02 </wgt>
<wgt id='66'> +5.3293217e+02 </wgt>
<wgt id='67'> +5.1538817e+02 </wgt>
<wgt id='68'> +4.2409677e+02 </wgt>
<wgt id='69'> +4.7398310e+02 </wgt>
<wgt id='70'> +4.9457316e+02 </wgt>
<wgt id='71'> +5.1704422e+02 </wgt>
<wgt id='72'> +5.0936333e+02 </wgt>
<wgt id='73'> +5.1524993e+02 </wgt>
<wgt id='74'> +4.6297085e+02 </wgt>
<wgt id='75'> +4.7400050e+02 </wgt>
<wgt id='76'> +5.2438602e+02 </wgt>
<wgt id='77'> +5.2380023e+02 </wgt>
<wgt id='78'> +5.2065548e+02 </wgt>
<wgt id='79'> +5.1543367e+02 </wgt>
<wgt id='80'> +5.3221580e+02 </wgt>
<wgt id='81'> +5.0002777e+02 </wgt>
<wgt id='82'> +5.0405684e+02 </wgt>
<wgt id='83'> +4.7552201e+02 </wgt>
<wgt id='84'> +5.1225311e+02 </wgt>
<wgt id='85'> +5.0010983e+02 </wgt>
<wgt id='86'> +5.0638807e+02 </wgt>
<wgt id='87'> +5.1311761e+02 </wgt>
<wgt id='88'> +5.0748197e+02 </wgt>
<wgt id='89'> +5.2669302e+02 </wgt>
<wgt id='90'> +5.4786708e+02 </wgt>
<wgt id='91'> +4.8065916e+02 </wgt>
<wgt id='92'> +5.2797867e+02 </wgt>
<wgt id='93'> +4.9555415e+02 </wgt>
<wgt id='94'> +5.1275269e+02 </wgt>
<wgt id='95'> +5.0334204e+02 </wgt>
<wgt id='96'> +4.9548216e+02 </wgt>
<wgt id='97'> +5.1848645e+02 </wgt>
<wgt id='98'> +5.1058365e+02 </wgt>
<wgt id='99'> +5.3237897e+02 </wgt>
<wgt id='100'> +5.4052696e+02 </wgt>
<wgt id='101'> +4.5354905e+02 </wgt>
<wgt id='102'> +4.7625469e+02 </wgt>
<wgt id='103'> +4.9227015e+02 </wgt>
<wgt id='104'> +4.9907553e+02 </wgt>
<wgt id='105'> +4.9347195e+02 </wgt>
<wgt id='106'> +5.3001799e+02 </wgt>
<wgt id='107'> +4.9796746e+02 </wgt>
<wgt id='108'> +5.3799896e+02 </wgt>
<wgt id='109'> +5.2661633e+02 </wgt>
<wgt id='110'> +5.3255069e+02 </wgt>
<wgt id='111'> +5.1989374e+02 </wgt>
<wgt id='112'> +5.1112668e+02 </wgt>
<wgt id='113'> +5.0887784e+02 </wgt>
<wgt id='114'> +5.1100147e+02 </wgt>
<wgt id='115'> +5.1970561e+02 </wgt>
<wgt id='116'> +4.9929906e+02 </wgt>
<wgt id='117'> +5.0165907e+02 </wgt>
<wgt id='118'> +4.7603032e+02 </wgt>
<wgt id='119'> +5.1085736e+02 </wgt>
<wgt id='120'> +4.9870870e+02 </wgt>
<wgt id='121'> +5.1348529e+02 </wgt>
<wgt id='122'> +5.1934141e+02 </wgt>
<wgt id='123'> +5.3770574e+02 </wgt>
<wgt id='124'> +4.8335054e+02 </wgt>
<wgt id='125'> +4.5111208e+02 </wgt>
<wgt id='126'> +5.0192356e+02 </wgt>
<wgt id='127'> +5.0470635e+02 </wgt>
<wgt id='128'> +5.2011497e+02 </wgt>
<wgt id='129'> +4.6829747e+02 </wgt>
<wgt id='130'> +4.9191294e+02 </wgt>
<wgt id='131'> +4.9204367e+02 </wgt>
<wgt id='132'> +4.7506157e+02 </wgt>
<wgt id='133'> +5.1043434e+02 </wgt>
<wgt id='134'> +4.8600687e+02 </wgt>
<wgt id='135'> +4.9327157e+02 </wgt>
<wgt id='136'> +4.9110387e+02 </wgt>
<wgt id='137'> +5.2761863e+02 </wgt>
<wgt id='138'> +5.1061061e+02 </wgt>
<wgt id='139'> +4.9304569e+02 </wgt>
<wgt id='140'> +4.8260839e+02 </wgt>
<wgt id='141'> +4.8339231e+02 </wgt>
<wgt id='142'> +5.4829043e+02 </wgt>
<wgt id='143'> +5.1907133e+02 </wgt>
<wgt id='144'> +5.3400393e+02 </wgt>
<wgt id='145'> +5.2103477e+02 </wgt>
</rwgt>
</event>
<event>
 4      1 +5.0481800e+02 1.78207000e+02 7.54677100e-03 1.16955000e-01
        2 -1    0    0  502    0 +0.0000000000e+00 +0.0000000000e+00 +9.2387894504e+02 9.2387894504e+02 0.0000000000e+00 0.0000e+00 -1.0000e+00
       -2 -1    0    0    0  501 -0.0000000000e+00 -0.0000000000e+00 -6.7157330677e+01 6.7157330677e+01 0.0000000000e+00 0.0000e+00 1.0000e+00
        6  1    1    2  502    0 -4.0940293228e+01 +1.2353681121e+01 +8.2152738708e+01 1.9623147944e+02 1.7300000000e+02 0.0000e+00 1.0000e+00
       -6  1    1    2    0  501 +4.0940293228e+01 -1.2353681121e+01 +7.7456887566e+02 7.9480479628e+02 1.7300000000e+02 0.0000e+00 -1.0000e+00
<mgrwt>
<rscale>  2 0.17820696E+03</rscale>
<asrwt>0</asrwt>
<pdfrwt beam="1">  1        2 0.14213521E+00 0.17820696E+03</pdfrwt>
<pdfrwt beam="2">  1       -2 0.10331898E-01 0.17820696E+03</pdfrwt>
<totfact> 0.18390079E+03</totfact>
</mgrwt>
<rwgt>
<wgt id='1'> +6.1499913e+02 </wgt>
<wgt id='2'> +6.6959661e+02 </wgt>
<wgt id='3'> +5.0481800e+02 </wgt>
<wgt id='4'> +6.1499913e+02 </wgt>
<wgt id='5'> +4.6430342e+02 </wgt>
<wgt id='6'> +6.2173733e+02 </wgt>
<wgt id='7'> +6.7908031e+02 </wgt>
<wgt id='8'> +5.0702304e+02 </wgt>
<wgt id='9'> +6.2173733e+02 </wgt>
<wgt id='10'> +4.6508944e+02 </wgt>
<wgt id='11'> +6.2445308e+02 </wgt>
<wgt id='12'> +6.8374990e+02 </wgt>
<wgt id='13'> +5.0662493e+02 </wgt>
<wgt id='14'> +6.2445308e+02 </wgt>
<wgt id='15'> +4.6378917e+02 </wgt>
<wgt id='16'> +4.9934694e+02 </wgt>
<wgt id='17'> +5.3806871e+02 </wgt>
<wgt id='18'> +4.2401351e+02 </wgt>
<wgt id='19'> +4.9934694e+02 </wgt>
<wgt id='20'> +3.9298905e+02 </wgt>
<wgt id='21'> +5.4568954e+02 </wgt>
<wgt id='22'> +4.2586560e+02 </wgt>
<wgt id='23'> +5.0481800e+02 </wgt>
<wgt id='24'> +3.9365434e+02 </wgt>
<wgt id='25'> +5.0702304e+02 </wgt>
<wgt id='26'> +5.4944189e+02 </wgt>
<wgt id='27'> +4.2553121e+02 </wgt>
<wgt id='28'> +5.0702304e+02 </wgt>
<wgt id='29'> +3.9255378e+02 </wgt>
<wgt id='30'> +4.1941819e+02 </wgt>
<wgt id='31'> +4.4631259e+02 </wgt>
<wgt id='32'> +3.6137018e+02 </wgt>
<wgt id='33'> +4.1941819e+02 </wgt>
<wgt id='34'> +3.3692662e+02 </wgt>
<wgt id='35'> +4.2401351e+02 </wgt>
<wgt id='36'> +4.5263385e+02 </wgt>
<wgt id='37'> +3.6294864e+02 </wgt>
<wgt id='38'> +4.2401351e+02 </wgt>
<wgt id='39'> +3.3749701e+02 </wgt>
<wgt id='40'> +4.2586560e+02 </wgt>
<wgt id='41'> +4.5574631e+02 </wgt>
<wgt id='42'> +3.6266365e+02 </wgt>
<wgt id='43'> +4.2586560e+02 </wgt>
<wgt id='44'> +3.3655345e+02 </wgt>
<wgt id='45'> +5.0481800e+02 </wgt>
<wgt id='46'> +5.0540672e+02 </wgt>
<wgt id='47'> +4.8877602e+02 </wgt>
<wgt id='48'> +4.9558778e+02 </wgt>
<wgt id='49'> +4.9917777e+02 </wgt>
<wgt id='50'> +4.5787421e+02 </wgt>
<wgt id='51'> +5.1406846e+02 </wgt>
<wgt id='52'> +4.9587702e+02 </wgt>
<wgt id='53'> +5.1906736e+02 </wgt>
<wgt id='54'> +4.9397726e+02 </wgt>
<wgt id='55'> +4.8449993e+02 </wgt>
<wgt id='56'> +5.4586229e+02 </wgt>
<wgt id='57'> +4.9420305e+02 </wgt>
<wgt id='58'> +5.2015116e+02 </wgt>
<wgt id='59'> +4.7498985e+02 </wgt>
<wgt id='60'> +5.0476801e+02 </wgt>
<wgt id='61'> +5.5981018e+02 </wgt>
<wgt id='62'> +5.2667782e+02 </wgt>
<wgt id='63'> +5.0825874e+02 </wgt>
<wgt id='64'> +5.0018642e+02 </wgt>
<wgt id='65'> +4.9727592e+02 </wgt>
<wgt id='66'> +5.2471093e+02 </wgt>
<wgt id='67'> +5.1422974e+02 </wgt>
<wgt id='68'> +4.1906933e+02 </wgt>
<wgt id='69'> +4.7327003e+02 </wgt>
<wgt id='70'> +4.8899232e+02 </wgt>
<wgt id='71'> +5.1830456e+02 </wgt>
<wgt id='72'> +5.2563540e+02 </wgt>
<wgt id='73'> +5.1853108e+02 </wgt>
<wgt id='74'> +4.4987015e+02 </wgt>
<wgt id='75'> +4.7640712e+02 </wgt>
<wgt id='76'> +5.2655907e+02 </wgt>
<wgt id='77'> +5.2511342e+02 </wgt>
<wgt id='78'> +5.3550749e+02 </wgt>
<wgt id='79'> +5.0946880e+02 </wgt>
<wgt id='80'> +5.5027210e+02 </wgt>
<wgt id='81'> +5.0819924e+02 </wgt>
<wgt id='82'> +5.0331854e+02 </wgt>
<wgt id='83'> +4.8865132e+02 </wgt>
<wgt id='84'> +5.0263331e+02 </wgt>
<wgt id='85'> +5.0386310e+02 </wgt>
<wgt id='86'> +4.9960633e+02 </wgt>
<wgt id='87'> +5.0930557e+02 </wgt>
<wgt id='88'> +5.0926478e+02 </wgt>
<wgt id='89'> +5.1215449e+02 </wgt>
<wgt id='90'> +5.4589232e+02 </wgt>
<wgt id='91'> +4.7985864e+02 </wgt>
<wgt id='92'> +5.4126147e+02 </wgt>
<wgt id='93'> +4.9121051e+02 </wgt>
<wgt id='94'> +5.1090760e+02 </wgt>
<wgt id='95'> +5.0172412e+02 </wgt>
<wgt id='96'> +4.8918302e+02 </wgt>
<wgt id='97'> +5.2642709e+02 </wgt>
<wgt id='98'> +5.1346719e+02 </wgt>
<wgt id='99'> +5.2968365e+02 </wgt>
<wgt id='100'> +5.5595662e+02 </wgt>
<wgt id='101'> +4.3477960e+02 </wgt>
<wgt id='102'> +4.6696434e+02 </wgt>
<wgt id='103'> +4.8303443e+02 </wgt>
<wgt id='104'> +4.8948443e+02 </wgt>
<wgt id='105'> +5.0079898e+02 </wgt>
<wgt id='106'> +5.4234754e+02 </wgt>
<wgt id='107'> +5.0149952e+02 </wgt>
<wgt id='108'> +5.6744768e+02 </wgt>
<wgt id='109'> +5.3030153e+02 </wgt>
<wgt id='110'> +5.2646262e+02 </wgt>
<wgt id='111'> +5.3161551e+02 </wgt>
<wgt id='112'> +5.2007871e+02 </wgt>
<wgt id='113'> +5.0764479e+02 </wgt>
<wgt id='114'> +5.0953735e+02 </wgt>
<wgt id='115'> +5.3822212e+02 </wgt>
<wgt id='116'> +4.7850402e+02 </wgt>
<wgt id='117'> +5.0747563e+02 </wgt>
<wgt id='118'> +4.6914271e+02 </wgt>
<wgt id='119'> +5.0449527e+02 </wgt>
<wgt id='120'> +5.0526738e+02 </wgt>
<wgt id='121'> +5.0703262e+02 </wgt>
<wgt id='122'> +5.2080140e+02 </wgt>
<wgt id='123'> +5.4357743e+02 </wgt>
<wgt id='124'> +4.6530905e+02 </wgt>
<wgt id='125'> +4.3303267e+02 </wgt>
<wgt id='126'> +5.0051923e+02 </wgt>
<wgt id='127'> +4.9616622e+02 </wgt>
<wgt id='128'> +5.2178278e+02 </wgt>
<wgt id='129'> +4.6638250e+02 </wgt>
<wgt id='130'> +4.9750348e+02 </wgt>
<wgt id='131'> +4.9623027e+02 </wgt>
<wgt id='132'> +4.6877740e+02 </wgt>
<wgt id='133'> +4.8983495e+02 </wgt>
<wgt id='134'> +4.9431138e+02 </wgt>
<wgt id='135'> +4.9518597e+02 </wgt>
<wgt id='136'> +4.7722945e+02 </wgt>
<wgt id='137'> +5.2572529e+02 </wgt>
<wgt id='138'> +5.1856080e+02 </wgt>
<wgt id='139'> +4.9318285e+02 </wgt>
<wgt id='140'> +4.9248041e+02 </wgt>
<wgt id='141'> +4.7690036e+02 </wgt>
<wgt id='142'> +5.6673104e+02 </wgt>
<wgt id='143'> +5.2015235e+02 </wgt>
<wgt id='144'> +5.4240894e+02 </wgt>
<wgt id='145'> +5.2053397e+02 </wgt>
</rwgt>
</event>
<event>
 4      1 +5.0481800e+02 1.75848800e+02 7.54677100e-03 1.17188200e-01
       21 -1    0    0  501  502 +0.0000000000e+00 +0.0000000000e+00 +1.5779140397e+02 1.5779140397e+02 0.0000000000e+00 0.0000e+00 1.0000e+00
       21 -1    0    0  502  503 -0.0000000000e+00 -0.0000000000e+00 -1.0871009844e+03 1.0871009844e+03 0.0000000000e+00 0.0000e+00 1.0000e+00
        6  1    1    2  501    0 +3.0651700734e+01 +7.3681773972e+00 +9.8901071251e+01 2.0175291495e+02 1.7300000000e+02 0.0000e+00 1.0000e+00
       -6  1    1    2    0  503 -3.0651700734e+01 -7.3681773972e+00 -1.0282106517e+03 1.0431394734e+03 1.7300000000e+02 0.0000e+00 1.0000e+00
<mgrwt>
<rscale>  2 0.17584885E+03</rscale>
<asrwt>0</asrwt>
<pdfrwt beam="1">  1       21 0.24275601E-01 0.17584885E+03</pdfrwt>
<pdfrwt beam="2">  1       21 0.16724630E+00 0.17584885E+03</pdfrwt>
<totfact> 0.36318652E+03</totfact>
</mgrwt>
<rwgt>
<wgt id='1'> +6.9565338e+02 </wgt>
<wgt id='2'> +9.5345183e+02 </wgt>
<wgt id='3'> +5.0481800e+02 </wgt>
<wgt id='4'> +6.9565338e+02 </wgt>
<wgt id='5'> +3.4997364e+02 </wgt>
<wgt id='6'> +6.2213191e+02 </wgt>
<wgt id='7'> +8.5299730e+02 </wgt>
<wgt id='8'> +4.4601629e+02 </wgt>
<wgt id='9'> +6.2213192e+02 </wgt>
<wgt id='10'> +3.1087126e+02 </wgt>
<wgt id='11'> +5.4966535e+02 </wgt>
<wgt id='12'> +7.6229160e+02 </wgt>
<wgt id='13'> +3.9570708e+02 </wgt>
<wgt id='14'> +5.4966536e+02 </wgt>
<wgt id='15'> +2.7754979e+02 </wgt>
<wgt id='16'> +5.6447570e+02 </wgt>
<wgt id='17'> +7.5602979e+02 </wgt>
<wgt id='18'> +4.2382735e+02 </wgt>
<wgt id='19'> +5.6447570e+02 </wgt>
<wgt id='20'> +2.9908208e+02 </wgt>
<wgt id='21'> +6.7637540e+02 </wgt>
<wgt id='22'> +3.7445951e+02 </wgt>
<wgt id='23'> +5.0481800e+02 </wgt>
<wgt id='24'> +2.6566579e+02 </wgt>
<wgt id='25'> +4.4601628e+02 </wgt>
<wgt id='26'> +6.0445126e+02 </wgt>
<wgt id='27'> +3.3222167e+02 </wgt>
<wgt id='28'> +4.4601629e+02 </wgt>
<wgt id='29'> +2.3718977e+02 </wgt>
<wgt id='30'> +4.7391384e+02 </wgt>
<wgt id='31'> +6.1516196e+02 </wgt>
<wgt id='32'> +3.6112288e+02 </wgt>
<wgt id='33'> +4.7391384e+02 </wgt>
<wgt id='34'> +2.5853376e+02 </wgt>
<wgt id='35'> +4.2382734e+02 </wgt>
<wgt id='36'> +5.5034924e+02 </wgt>
<wgt id='37'> +3.1905892e+02 </wgt>
<wgt id='38'> +4.2382735e+02 </wgt>
<wgt id='39'> +2.2964792e+02 </wgt>
<wgt id='40'> +3.7445950e+02 </wgt>
<wgt id='41'> +4.9182641e+02 </wgt>
<wgt id='42'> +2.8307010e+02 </wgt>
<wgt id='43'> +3.7445951e+02 </wgt>
<wgt id='44'> +2.0503256e+02 </wgt>
<wgt id='45'> +5.0481800e+02 </wgt>
<wgt id='46'> +5.2336897e+02 </wgt>
<wgt id='47'> +5.2579966e+02 </wgt>
<wgt id='48'> +5.0865771e+02 </wgt>
<wgt id='49'> +4.7548136e+02 </wgt>
<wgt id='50'> +6.2537278e+02 </wgt>
<wgt id='51'> +4.7925244e+02 </wgt>
<wgt id='52'> +4.8594029e+02 </wgt>
<wgt id='53'> +5.0045460e+02 </wgt>
<wgt id='54'> +5.3007257e+02 </wgt>
<wgt id='55'> +5.2195205e+02 </wgt>
<wgt id='56'> +4.6404923e+02 </wgt>
<wgt id='57'> +5.2491539e+02 </wgt>
<wgt id='58'> +4.6469568e+02 </wgt>
<wgt id='59'> +5.4417059e+02 </wgt>
<wgt id='60'> +5.0374353e+02 </wgt>
<wgt id='61'> +4.4717879e+02 </wgt>
<wgt id='62'> +4.7668981e+02 </wgt>
<wgt id='63'> +5.2302526e+02 </wgt>
<wgt id='64'> +4.9804260e+02 </wgt>
<wgt id='65'> +5.1392513e+02 </wgt>
<wgt id='66'> +5.0426858e+02 </wgt>
<wgt id='67'> +5.0767633e+02 </wgt>
<wgt id='68'> +5.9848373e+02 </wgt>
<wgt id='69'> +5.3584618e+02 </wgt>
<wgt id='70'> +5.2000918e+02 </wgt>
<wgt id='71'> +4.8609633e+02 </wgt>
<wgt id='72'> +4.6129447e+02 </wgt>
<wgt id='73'> +4.6295654e+02 </wgt>
<wgt id='74'> +5.6761693e+02 </wgt>
<wgt id='75'> +5.3715632e+02 </wgt>
<wgt id='76'> +5.0912933e+02 </wgt>
<wgt id='77'> +4.8523553e+02 </wgt>
<wgt id='78'> +4.4759055e+02 </wgt>
<wgt id='79'> +5.2276925e+02 </wgt>
<wgt id='80'> +4.6167216e+02 </wgt>
<wgt id='81'> +5.0712795e+02 </wgt>
<wgt id='82'> +4.9027629e+02 </wgt>
<wgt id='83'> +5.0717023e+02 </wgt>
<wgt id='84'> +5.2222328e+02 </wgt>
<wgt id='85'> +4.8110985e+02 </wgt>
<wgt id='86'> +5.2366676e+02 </wgt>
<wgt id='87'> +5.0427719e+02 </wgt>
<wgt id='88'> +5.0001420e+02 </wgt>
<wgt id='89'> +4.6554511e+02 </wgt>
<wgt id='90'> +4.9025245e+02 </wgt>
<wgt id='91'> +4.7114705e+02 </wgt>
<wgt id='92'> +4.5306930e+02 </wgt>
<wgt id='93'> +5.0809489e+02 </wgt>
<wgt id='94'> +4.6821686e+02 </wgt>
<wgt id='95'> +5.1638668e+02 </wgt>
<wgt id='96'> +5.4456721e+02 </wgt>
<wgt id='97'> +4.7146386e+02 </wgt>
<wgt id='98'> +5.2090332e+02 </wgt>
<wgt id='99'> +4.3958749e+02 </wgt>
<wgt id='100'> +4.0706695e+02 </wgt>
<wgt id='101'> +5.9152617e+02 </wgt>
<wgt id='102'> +5.5805164e+02 </wgt>
<wgt id='103'> +5.1476789e+02 </wgt>
<wgt id='104'> +5.3265979e+02 </wgt>
<wgt id='105'> +5.1722256e+02 </wgt>
<wgt id='106'> +4.6497228e+02 </wgt>
<wgt id='107'> +4.7360162e+02 </wgt>
<wgt id='108'> +4.4845762e+02 </wgt>
<wgt id='109'> +4.8269553e+02 </wgt>
<wgt id='110'> +4.7602400e+02 </wgt>
<wgt id='111'> +4.8817400e+02 </wgt>
<wgt id='112'> +5.0309295e+02 </wgt>
<wgt id='113'> +4.9433420e+02 </wgt>
<wgt id='114'> +5.0811208e+02 </wgt>
<wgt id='115'> +4.6353907e+02 </wgt>
<wgt id='116'> +5.5099748e+02 </wgt>
<wgt id='117'> +4.9417225e+02 </wgt>
<wgt id='118'> +5.3348247e+02 </wgt>
<wgt id='119'> +5.2535488e+02 </wgt>
<wgt id='120'> +5.0247828e+02 </wgt>
<wgt id='121'> +4.9464165e+02 </wgt>
<wgt id='122'> +4.9493146e+02 </wgt>
<wgt id='123'> +4.9673064e+02 </wgt>
<wgt id='124'> +5.8079693e+02 </wgt>
<wgt id='125'> +6.1892226e+02 </wgt>
<wgt id='126'> +5.0908011e+02 </wgt>
<wgt id='127'> +5.0063497e+02 </wgt>
<wgt id='128'> +4.6865586e+02 </wgt>
<wgt id='129'> +5.4473719e+02 </wgt>
<wgt id='130'> +4.9176806e+02 </wgt>
<wgt id='131'> +4.9039310e+02 </wgt>
<wgt id='132'> +5.4919107e+02 </wgt>
<wgt id='133'> +5.4471109e+02 </wgt>
<wgt id='134'> +5.1159193e+02 </wgt>
<wgt id='135'> +4.9431599e+02 </wgt>
<wgt id='136'> +5.7027047e+02 </wgt>
<wgt id='137'> +5.0879462e+02 </wgt>
<wgt id='138'> +5.0379699e+02 </wgt>
<wgt id='139'> +5.2330506e+02 </wgt>
<wgt id='140'> +5.0227682e+02 </wgt>
<wgt id='141'> +5.5091427e+02 </wgt>
<wgt id='142'> +3.9541454e+02 </wgt>
<wgt id='143'> +5.1786938e+02 </wgt>
<wgt id='144'> +4.6669957e+02 </wgt>
<wgt id='145'> +4.7733247e+02 </wgt>
</rwgt>
</event>
<event>
 4      1 +5.0481800e+02 2.14661400e+02 7.54677100e-03 1.13792700e-01
       21 -1    0    0  501  502 +0.0000000000e+00 +0.0000000000e+00 +6.2245599606e+01 6.2245599606e+01 0.0000000000e+00 0.0000e+00 -1.0000e+00
       21 -1    0    0  502  503 -0.0000000000e+00 -0.0000000000e+00 -1.0227953983e+03 1.0227953983e+03 0.0000000000e+00 0.0000e+00 1.0000e+00
        6  1    1    2  501    0 -8.3584816205e+01 +9.5729280841e+01 -1.9514774420e+02 2.9010715051e+02 1.7300000000e+02 0.0000e+00 -1.0000e+00
       -6  1    1    2    0  503 +8.3584816205e+01 -9.5729280841e+01 -7.6540205450e+02 7.9493384741e+02 1.7300000000e+02 0.0000e+00 1.0000e+00
<mgrwt>
<rscale>  2 0.21466140E+03</rscale>
<asrwt>0</asrwt>
<pdfrwt beam="1">  1       21 0.95762465E-02 0.21466140E+03</pdfrwt>
<pdfrwt beam="2">  1       21 0.15735313E+00 0.21466140E+03</pdfrwt>
<totfact> 0.22726375E+04</totfact>
</mgrwt>
<rwgt>
<wgt id='1'> +6.6761653e+02 </wgt>
<wgt id='2'> +5.9124964e+02 </wgt>
<wgt id='3'> +5.0481800e+02 </wgt>
<wgt id='4'> +6.6761653e+02 </wgt>
<wgt id='5'> +4.7414938e+02 </wgt>
<wgt id='6'> +6.1585230e+02 </wgt>
<wgt id='7'> +5.4105903e+02 </wgt>
<wgt id='8'> +4.5999726e+02 </wgt>
<wgt id='9'> +6.1585230e+02 </wgt>
<wgt id='10'> +4.3226335e+02 </wgt>
<wgt id='11'> +5.6117328e+02 </wgt>
<wgt id='12'> +4.9343154e+02 </wgt>
<wgt id='13'> +4.2000096e+02 </wgt>
<wgt id='14'> +5.6117328e+02 </wgt>
<wgt id='15'> +3.9489111e+02 </wgt>
<wgt id='16'> +5.4724947e+02 </wgt>
<wgt id='17'> +4.9221360e+02 </wgt>
<wgt id='18'> +4.2603600e+02 </wgt>
<wgt id='19'> +5.4724947e+02 </wgt>
<wgt id='20'> +4.0142571e+02 </wgt>
<wgt id='21'> +4.5043007e+02 </wgt>
<wgt id='22'> +3.8820999e+02 </wgt>
<wgt id='23'> +5.0481800e+02 </wgt>
<wgt id='24'> +3.6596404e+02 </wgt>
<wgt id='25'> +4.5999726e+02 </wgt>
<wgt id='26'> +4.1078032e+02 </wgt>
<wgt id='27'> +3.5445552e+02 </wgt>
<wgt id='28'> +4.5999726e+02 </wgt>
<wgt id='29'> +3.3432384e+02 </wgt>
<wgt id='30'> +4.6184560e+02 </wgt>
<wgt id='31'> +4.1782249e+02 </wgt>
<wgt id='32'> +3.6431625e+02 </wgt>
<wgt id='33'> +4.6184560e+02 </wgt>
<wgt id='34'> +3.4423577e+02 </wgt>
<wgt id='35'> +4.2603600e+02 </wgt>
<wgt id='36'> +3.8235395e+02 </wgt>
<wgt id='37'> +3.3197009e+02 </wgt>
<wgt id='38'> +4.2603600e+02 </wgt>
<wgt id='39'> +3.1382622e+02 </wgt>
<wgt id='40'> +3.8820999e+02 </wgt>
<wgt id='41'> +3.4869670e+02 </wgt>
<wgt id='42'> +3.0310562e+02 </wgt>
<wgt id='43'> +3.8820999e+02 </wgt>
<wgt id='44'> +2.8669371e+02 </wgt>
<wgt id='45'> +5.0481800e+02 </wgt>
<wgt id='46'> +5.1909887e+02 </wgt>
<wgt id='47'> +5.1884341e+02 </wgt>
<wgt id='48'> +5.0544855e+02 </wgt>
<wgt id='49'> +4.7858514e+02 </wgt>
<wgt id='50'> +5.9774602e+02 </wgt>
<wgt id='51'> +4.8204153e+02 </wgt>
<wgt id='52'> +4.8893971e+02 </wgt>
<wgt id='53'> +5.0000441e+02 </wgt>
<wgt id='54'> +5.2741462e+02 </wgt>
<wgt id='55'> +5.2793309e+02 </wgt>
<wgt id='56'> +4.7126411e+02 </wgt>
<wgt id='57'> +5.2667471e+02 </wgt>
<wgt id='58'> +4.7251329e+02 </wgt>
<wgt id='59'> +5.4213431e+02 </wgt>
<wgt id='60'> +5.0732455e+02 </wgt>
<wgt id='61'> +4.5137952e+02 </wgt>
<wgt id='62'> +4.7897454e+02 </wgt>
<wgt id='63'> +5.2083273e+02 </wgt>
<wgt id='64'> +5.0147527e+02 </wgt>
<wgt id='65'> +5.0479918e+02 </wgt>
<wgt id='66'> +5.0375234e+02 </wgt>
<wgt id='67'> +5.0706686e+02 </wgt>
<wgt id='68'> +5.8497848e+02 </wgt>
<wgt id='69'> +5.2545868e+02 </wgt>
<wgt id='70'> +5.1937617e+02 </wgt>
<wgt id='71'> +4.8888344e+02 </wgt>
<wgt id='72'> +4.7586665e+02 </wgt>
<wgt id='73'> +4.6926165e+02 </wgt>
<wgt id='74'> +5.5714749e+02 </wgt>
<wgt id='75'> +5.3044902e+02 </wgt>
<wgt id='76'> +5.1203870e+02 </wgt>
<wgt id='77'> +4.8788981e+02 </wgt>
<wgt id='78'> +4.5437275e+02 </wgt>
<wgt id='79'> +5.2135833e+02 </wgt>
<wgt id='80'> +4.6742998e+02 </wgt>
<wgt id='81'> +5.0858068e+02 </wgt>
<wgt id='82'> +4.8875671e+02 </wgt>
<wgt id='83'> +5.0189403e+02 </wgt>
<wgt id='84'> +5.1427152e+02 </wgt>
<wgt id='85'> +4.8066379e+02 </wgt>
<wgt id='86'> +5.1841396e+02 </wgt>
<wgt id='87'> +5.0386654e+02 </wgt>
<wgt id='88'> +4.9654968e+02 </wgt>
<wgt id='89'> +4.6934300e+02 </wgt>
<wgt id='90'> +4.9355773e+02 </wgt>
<wgt id='91'> +4.7384665e+02 </wgt>
<wgt id='92'> +4.6836015e+02 </wgt>
<wgt id='93'> +5.0650570e+02 </wgt>
<wgt id='94'> +4.7404780e+02 </wgt>
<wgt id='95'> +5.2084890e+02 </wgt>
<wgt id='96'> +5.3096705e+02 </wgt>
<wgt id='97'> +4.7564721e+02 </wgt>
<wgt id='98'> +5.1965702e+02 </wgt>
<wgt id='99'> +4.4803446e+02 </wgt>
<wgt id='100'> +4.2141458e+02 </wgt>
<wgt id='101'> +5.7752917e+02 </wgt>
<wgt id='102'> +5.4917170e+02 </wgt>
<wgt id='103'> +5.1040071e+02 </wgt>
<wgt id='104'> +5.2591983e+02 </wgt>
<wgt id='105'> +5.1933225e+02 </wgt>
<wgt id='106'> +4.7673477e+02 </wgt>
<wgt id='107'> +4.8105523e+02 </wgt>
<wgt id='108'> +4.6023902e+02 </wgt>
<wgt id='109'> +4.9041726e+02 </wgt>
<wgt id='110'> +4.8135886e+02 </wgt>
<wgt id='111'> +4.9253845e+02 </wgt>
<wgt id='112'> +5.0536931e+02 </wgt>
<wgt id='113'> +4.9978913e+02 </wgt>
<wgt id='114'> +5.1143113e+02 </wgt>
<wgt id='115'> +4.6695126e+02 </wgt>
<wgt id='116'> +5.4092192e+02 </wgt>
<wgt id='117'> +4.9395612e+02 </wgt>
<wgt id='118'> +5.2657185e+02 </wgt>
<wgt id='119'> +5.2633354e+02 </wgt>
<wgt id='120'> +5.0186629e+02 </wgt>
<wgt id='121'> +5.0063392e+02 </wgt>
<wgt id='122'> +4.9744195e+02 </wgt>
<wgt id='123'> +4.9448499e+02 </wgt>
<wgt id='124'> +5.6765539e+02 </wgt>
<wgt id='125'> +6.0141770e+02 </wgt>
<wgt id='126'> +5.0489271e+02 </wgt>
<wgt id='127'> +4.9904326e+02 </wgt>
<wgt id='128'> +4.7193039e+02 </wgt>
<wgt id='129'> +5.3806373e+02 </wgt>
<wgt id='130'> +4.8765730e+02 </wgt>
<wgt id='131'> +4.9069601e+02 </wgt>
<wgt id='132'> +5.4845397e+02 </wgt>
<wgt id='133'> +5.3811092e+02 </wgt>
<wgt id='134'> +5.1437201e+02 </wgt>
<wgt id='135'> +4.9492183e+02 </wgt>
<wgt id='136'> +5.6818016e+02 </wgt>
<wgt id='137'> +5.0604688e+02 </wgt>
<wgt id='138'> +4.9792562e+02 </wgt>
<wgt id='139'> +5.2039282e+02 </wgt>
<wgt id='140'> +5.0175871e+02 </wgt>
<wgt id='141'> +5.4377639e+02 </wgt>
<wgt id='142'> +4.0941957e+02 </wgt>
<wgt id='143'> +5.1920170e+02 </wgt>
<wgt id='144'> +4.7441355e+02 </wgt>
<wgt id='145'> +4.8006661e+02 </wgt>
</rwgt>
</event>
<event>
 4      1 +5.0481800e+02 2.31167100e+02 7.54677100e-03 1.12582100e-01
       21 -1    0    0  503  502 +0.0000000000e+00 +0.0000000000e+00 +1.9238134421e+02 1.9238134421e+02 0.0000000000e+00 0.0000e+00 -1.0000e+00
       21 -1    0    0  501  503 -0.0000000000e+00 -0.0000000000e+00 -2.8261604096e+02 2.8261604096e+02 0.0000000000e+00 0.0000e+00 -1.0000e+00
        6  1    1    2  501    0 -1.3045672000e+02 +8.0562121816e+01 -7.6209631905e+01 2.4340525726e+02 1.7300000000e+02 0.0000e+00 -1.0000e+00
       -6  1    1    2    0  502 +1.3045672000e+02 -8.0562121816e+01 -1.4025064849e+01 2.3159212791e+02 1.7300000000e+02 0.0000e+00 -1.0000e+00
<mgrwt>
<rscale>  2 0.23116706E+03</rscale>
<asrwt>0</asrwt>
<pdfrwt beam="1">  1       21 0.29597130E-01 0.23116706E+03</pdfrwt>
<pdfrwt beam="2">  1       21 0.43479391E-01 0.23116706E+03</pdfrwt>
<totfact> 0.54665413E+04</totfact>
</mgrwt>
<rwgt>
<wgt id='1'> +6.4819922e+02 </wgt>
<wgt id='2'> +5.1017859e+02 </wgt>
<wgt id='3'> +5.0481800e+02 </wgt>
<wgt id='4'> +6.4819922e+02 </wgt>
<wgt id='5'> +5.0329458e+02 </wgt>
<wgt id='6'> +6.1334883e+02 </wgt>
<wgt id='7'> +4.7706393e+02 </wgt>
<wgt id='8'> +4.7206058e+02 </wgt>
<wgt id='9'> +6.1334883e+02 </wgt>
<wgt id='10'> +4.7063492e+02 </wgt>
<wgt id='11'> +5.7354890e+02 </wgt>
<wgt id='12'> +4.4615995e+02 </wgt>
<wgt id='13'> +4.4149080e+02 </wgt>
<wgt id='14'> +5.7354890e+02 </wgt>
<wgt id='15'> +4.4016044e+02 </wgt>
<wgt id='16'> +5.3350168e+02 </wgt>
<wgt id='17'> +4.3091367e+02 </wgt>
<wgt id='18'> +4.2663551e+02 </wgt>
<wgt id='19'> +5.3350168e+02 </wgt>
<wgt id='20'> +4.2542285e+02 </wgt>
<wgt id='21'> +4.0294393e+02 </wgt>
<wgt id='22'> +3.9895132e+02 </wgt>
<wgt id='23'> +5.0481800e+02 </wgt>
<wgt id='24'> +3.9781643e+02 </wgt>
<wgt id='25'> +4.7206059e+02 </wgt>
<wgt id='26'> +3.7684141e+02 </wgt>
<wgt id='27'> +3.7311596e+02 </wgt>
<wgt id='28'> +4.7206058e+02 </wgt>
<wgt id='29'> +3.7205708e+02 </wgt>
<wgt id='30'> +4.5087687e+02 </wgt>
<wgt id='31'> +3.6877045e+02 </wgt>
<wgt id='32'> +3.6530093e+02 </wgt>
<wgt id='33'> +4.5087687e+02 </wgt>
<wgt id='34'> +3.6431727e+02 </wgt>
<wgt id='35'> +4.2663551e+02 </wgt>
<wgt id='36'> +3.4483431e+02 </wgt>
<wgt id='37'> +3.4159672e+02 </wgt>
<wgt id='38'> +4.2663551e+02 </wgt>
<wgt id='39'> +3.4067610e+02 </wgt>
<wgt id='40'> +3.9895132e+02 </wgt>
<wgt id='41'> +3.2249610e+02 </wgt>
<wgt id='42'> +3.1947554e+02 </wgt>
<wgt id='43'> +3.9895132e+02 </wgt>
<wgt id='44'> +3.1861669e+02 </wgt>
<wgt id='45'> +5.0481800e+02 </wgt>
<wgt id='46'> +5.0589489e+02 </wgt>
<wgt id='47'> +5.2377460e+02 </wgt>
<wgt id='48'> +5.0715388e+02 </wgt>
<wgt id='49'> +5.0374831e+02 </wgt>
<wgt id='50'> +5.9224018e+02 </wgt>
<wgt id='51'> +4.9517035e+02 </wgt>
<wgt id='52'> +5.0186015e+02 </wgt>
<wgt id='53'> +5.1041235e+02 </wgt>
<wgt id='54'> +5.0771527e+02 </wgt>
<wgt id='55'> +4.5039001e+02 </wgt>
<wgt id='56'> +4.6891340e+02 </wgt>
<wgt id='57'> +4.9075225e+02 </wgt>
<wgt id='58'> +5.0699433e+02 </wgt>
<wgt id='59'> +4.9768241e+02 </wgt>
<wgt id='60'> +4.8455163e+02 </wgt>
<wgt id='61'> +4.9082876e+02 </wgt>
<wgt id='62'> +4.9855961e+02 </wgt>
<wgt id='63'> +5.0534452e+02 </wgt>
<wgt id='64'> +4.9926515e+02 </wgt>
<wgt id='65'> +5.9616428e+02 </wgt>
<wgt id='66'> +4.9330165e+02 </wgt>
<wgt id='67'> +5.0940644e+02 </wgt>
<wgt id='68'> +5.4167560e+02 </wgt>
<wgt id='69'> +4.9430988e+02 </wgt>
<wgt id='70'> +4.9627381e+02 </wgt>
<wgt id='71'> +5.1419889e+02 </wgt>
<wgt id='72'> +4.8793961e+02 </wgt>
<wgt id='73'> +4.9757005e+02 </wgt>
<wgt id='74'> +5.2085313e+02 </wgt>
<wgt id='75'> +5.1657147e+02 </wgt>
<wgt id='76'> +4.8948348e+02 </wgt>
<wgt id='77'> +4.8677150e+02 </wgt>
<wgt id='78'> +5.0435226e+02 </wgt>
<wgt id='79'> +4.8472842e+02 </wgt>
<wgt id='80'> +5.0022597e+02 </wgt>
<wgt id='81'> +4.9510072e+02 </wgt>
<wgt id='82'> +5.1826023e+02 </wgt>
<wgt id='83'> +5.1628451e+02 </wgt>
<wgt id='84'> +5.5555980e+02 </wgt>
<wgt id='85'> +5.3160344e+02 </wgt>
<wgt id='86'> +5.0241852e+02 </wgt>
<wgt id='87'> +5.0510558e+02 </wgt>
<wgt id='88'> +5.1441533e+02 </wgt>
<wgt id='89'> +5.1701646e+02 </wgt>
<wgt id='90'> +5.1038788e+02 </wgt>
<wgt id='91'> +5.3711698e+02 </wgt>
<wgt id='92'> +4.6199664e+02 </wgt>
<wgt id='93'> +4.9676892e+02 </wgt>
<wgt id='94'> +5.0132656e+02 </wgt>
<wgt id='95'> +4.8316051e+02 </wgt>
<wgt id='96'> +5.4743628e+02 </wgt>
<wgt id='97'> +5.1212635e+02 </wgt>
<wgt id='98'> +4.8173526e+02 </wgt>
<wgt id='99'> +4.8972569e+02 </wgt>
<wgt id='100'> +4.9918855e+02 </wgt>
<wgt id='101'> +5.3179100e+02 </wgt>
<wgt id='102'> +4.9182633e+02 </wgt>
<wgt id='103'> +5.4887297e+02 </wgt>
<wgt id='104'> +5.0488201e+02 </wgt>
<wgt id='105'> +5.2359941e+02 </wgt>
<wgt id='106'> +4.6249852e+02 </wgt>
<wgt id='107'> +4.9689310e+02 </wgt>
<wgt id='108'> +4.5099686e+02 </wgt>
<wgt id='109'> +4.7306344e+02 </wgt>
<wgt id='110'> +5.0514185e+02 </wgt>
<wgt id='111'> +4.9093114e+02 </wgt>
<wgt id='112'> +4.8112864e+02 </wgt>
<wgt id='113'> +4.6266084e+02 </wgt>
<wgt id='114'> +5.0188319e+02 </wgt>
<wgt id='115'> +5.0503302e+02 </wgt>
<wgt id='116'> +5.0596216e+02 </wgt>
<wgt id='117'> +5.1135996e+02 </wgt>
<wgt id='118'> +5.1879212e+02 </wgt>
<wgt id='119'> +4.8449384e+02 </wgt>
<wgt id='120'> +5.0261109e+02 </wgt>
<wgt id='121'> +4.8959081e+02 </wgt>
<wgt id='122'> +4.9794899e+02 </wgt>
<wgt id='123'> +5.1209246e+02 </wgt>
<wgt id='124'> +5.4030452e+02 </wgt>
<wgt id='125'> +5.4139104e+02 </wgt>
<wgt id='126'> +5.2520611e+02 </wgt>
<wgt id='127'> +5.2026841e+02 </wgt>
<wgt id='128'> +4.6861776e+02 </wgt>
<wgt id='129'> +5.7170753e+02 </wgt>
<wgt id='130'> +5.0984834e+02 </wgt>
<wgt id='131'> +5.4064626e+02 </wgt>
<wgt id='132'> +4.9930110e+02 </wgt>
<wgt id='133'> +5.0229403e+02 </wgt>
<wgt id='134'> +4.7473980e+02 </wgt>
<wgt id='135'> +5.1767687e+02 </wgt>
<wgt id='136'> +4.8373297e+02 </wgt>
<wgt id='137'> +4.7626037e+02 </wgt>
<wgt id='138'> +4.6117119e+02 </wgt>
<wgt id='139'> +5.1480962e+02 </wgt>
<wgt id='140'> +5.3615905e+02 </wgt>
<wgt id='141'> +5.0457759e+02 </wgt>
<wgt id='142'> +5.0727623e+02 </wgt>
<wgt id='143'> +5.0038251e+02 </wgt>
<wgt id='144'> +5.0338069e+02 </wgt>
<wgt id='145'> +5.0598976e+02 </wgt>
</rwgt>
</event>
<event>
 4      1 +5.0481800e+02 2.40002500e+02 7.54677100e-03 1.11979100e-01
       21 -1    0    0  501  502 +0.0000000000e+00 +0.0000000000e+00 +1.3052176577e+02 1.3052176577e+02 0.0000000000e+00 0.0000e+00 -1.0000e+00
       21 -1    0    0  502  503 -0.0000000000e+00 -0.0000000000e+00 -5.2324455103e+02 5.2324455103e+02 0.0000000000e+00 0.0000e+00 1.0000e+00
        6  1    1    2  501    0 -1.5646177395e+02 -5.6496867781e+01 -6.7012983763e+01 2.4918250895e+02 1.7300000000e+02 0.0000e+00 -1.0000e+00
       -6  1    1    2    0  503 +1.5646177395e+02 +5.6496867781e+01 -3.2570980150e+02 4.0458380785e+02 1.7300000000e+02 0.0000e+00 1.0000e+00
<mgrwt>
<rscale>  2 0.24000246E+03</rscale>
<asrwt>0</asrwt>
<pdfrwt beam="1">  1       21 0.20080271E-01 0.24000246E+03</pdfrwt>
<pdfrwt beam="2">  1       21 0.80499163E-01 0.24000246E+03</pdfrwt>
<totfact> 0.30315334E+04</totfact>
</mgrwt>
<rwgt>
<wgt id='1'> +6.5516249e+02 </wgt>
<wgt id='2'> +5.3241452e+02 </wgt>
<wgt id='3'> +5.0481800e+02 </wgt>
<wgt id='4'> +6.5516248e+02 </wgt>
<wgt id='5'> +4.8945523e+02 </wgt>
<wgt id='6'> +6.1215159e+02 </wgt>
<wgt id='7'> +4.9253221e+02 </wgt>
<wgt id='8'> +4.6713796e+02 </wgt>
<wgt id='9'> +6.1215159e+02 </wgt>
<wgt id='10'> +4.5296314e+02 </wgt>
<wgt id='11'> +5.6646009e+02 </wgt>
<wgt id='12'> +4.5612998e+02 </wgt>
<wgt id='13'> +4.3273344e+02 </wgt>
<wgt id='14'> +5.6646008e+02 </wgt>
<wgt id='15'> +4.1967592e+02 </wgt>
<wgt id='16'> +5.4028744e+02 </wgt>
<wgt id='17'> +4.4903225e+02 </wgt>
<wgt id='18'> +4.2696211e+02 </wgt>
<wgt id='19'> +5.4028744e+02 </wgt>
<wgt id='20'> +4.1467282e+02 </wgt>
<wgt id='21'> +4.1539597e+02 </wgt>
<wgt id='22'> +3.9509331e+02 </wgt>
<wgt id='23'> +5.0481800e+02 </wgt>
<wgt id='24'> +3.8375625e+02 </wgt>
<wgt id='25'> +4.6713797e+02 </wgt>
<wgt id='26'> +3.8469475e+02 </wgt>
<wgt id='27'> +3.6599484e+02 </wgt>
<wgt id='28'> +4.6713796e+02 </wgt>
<wgt id='29'> +3.5555489e+02 </wgt>
<wgt id='30'> +4.5696126e+02 </wgt>
<wgt id='31'> +3.8375238e+02 </wgt>
<wgt id='32'> +3.6581834e+02 </wgt>
<wgt id='33'> +4.5696126e+02 </wgt>
<wgt id='34'> +3.5580732e+02 </wgt>
<wgt id='35'> +4.2696211e+02 </wgt>
<wgt id='36'> +3.5500611e+02 </wgt>
<wgt id='37'> +3.3851336e+02 </wgt>
<wgt id='38'> +4.2696211e+02 </wgt>
<wgt id='39'> +3.2927956e+02 </wgt>
<wgt id='40'> +3.9509331e+02 </wgt>
<wgt id='41'> +3.2876820e+02 </wgt>
<wgt id='42'> +3.1358199e+02 </wgt>
<wgt id='43'> +3.9509331e+02 </wgt>
<wgt id='44'> +3.0508156e+02 </wgt>
<wgt id='45'> +5.0481800e+02 </wgt>
<wgt id='46'> +5.1313009e+02 </wgt>
<wgt id='47'> +5.2345288e+02 </wgt>
<wgt id='48'> +5.0952817e+02 </wgt>
<wgt id='49'> +4.9943557e+02 </wgt>
<wgt id='50'> +6.0285613e+02 </wgt>
<wgt id='51'> +4.9358569e+02 </wgt>
<wgt id='52'> +5.0317475e+02 </wgt>
<wgt id='53'> +5.0276323e+02 </wgt>
<wgt id='54'> +5.1068607e+02 </wgt>
<wgt id='55'> +4.6539020e+02 </wgt>
<wgt id='56'> +4.6250028e+02 </wgt>
<wgt id='57'> +4.9961907e+02 </wgt>
<wgt id='58'> +4.9782234e+02 </wgt>
<wgt id='59'> +5.1375160e+02 </wgt>
<wgt id='60'> +4.9635539e+02 </wgt>
<wgt id='61'> +4.5833404e+02 </wgt>
<wgt id='62'> +4.9689452e+02 </wgt>
<wgt id='63'> +5.0626235e+02 </wgt>
<wgt id='64'> +4.9506927e+02 </wgt>
<wgt id='65'> +5.7680245e+02 </wgt>
<wgt id='66'> +4.9543312e+02 </wgt>
<wgt id='67'> +5.0853286e+02 </wgt>
<wgt id='68'> +5.5288802e+02 </wgt>
<wgt id='69'> +5.0289749e+02 </wgt>
<wgt id='70'> +4.9738561e+02 </wgt>
<wgt id='71'> +5.1153827e+02 </wgt>
<wgt id='72'> +4.8289691e+02 </wgt>
<wgt id='73'> +4.9152566e+02 </wgt>
<wgt id='74'> +5.3036803e+02 </wgt>
<wgt id='75'> +5.1750919e+02 </wgt>
<wgt id='76'> +4.9412148e+02 </wgt>
<wgt id='77'> +4.9221265e+02 </wgt>
<wgt id='78'> +4.9011746e+02 </wgt>
<wgt id='79'> +4.9393451e+02 </wgt>
<wgt id='80'> +4.9376463e+02 </wgt>
<wgt id='81'> +4.9472365e+02 </wgt>
<wgt id='82'> +5.0555893e+02 </wgt>
<wgt id='83'> +5.1455359e+02 </wgt>
<wgt id='84'> +5.4912905e+02 </wgt>
<wgt id='85'> +5.2142560e+02 </wgt>
<wgt id='86'> +5.0657943e+02 </wgt>
<wgt id='87'> +5.0739634e+02 </wgt>
<wgt id='88'> +5.1096580e+02 </wgt>
<wgt id='89'> +5.1381851e+02 </wgt>
<wgt id='90'> +5.1298717e+02 </wgt>
<wgt id='91'> +5.2492136e+02 </wgt>
<wgt id='92'> +4.5838884e+02 </wgt>
<wgt id='93'> +5.0094546e+02 </wgt>
<wgt id='94'> +4.9410085e+02 </wgt>
<wgt id='95'> +4.9097255e+02 </wgt>
<wgt id='96'> +5.4611428e+02 </wgt>
<wgt id='97'> +5.0364229e+02 </wgt>
<wgt id='98'> +4.8929186e+02 </wgt>
<wgt id='99'> +4.8221100e+02 </wgt>
<wgt id='100'> +4.7955102e+02 </wgt>
<wgt id='101'> +5.4966505e+02 </wgt>
<wgt id='102'> +5.1043035e+02 </wgt>
<wgt id='103'> +5.4668426e+02 </wgt>
<wgt id='104'> +5.0901304e+02 </wgt>
<wgt id='105'> +5.2079593e+02 </wgt>
<wgt id='106'> +4.5903691e+02 </wgt>
<wgt id='107'> +4.8530241e+02 </wgt>
<wgt id='108'> +4.4560171e+02 </wgt>
<wgt id='109'> +4.7276865e+02 </wgt>
<wgt id='110'> +5.0116807e+02 </wgt>
<wgt id='111'> +4.9009508e+02 </wgt>
<wgt id='112'> +4.7807578e+02 </wgt>
<wgt id='113'> +4.6493126e+02 </wgt>
<wgt id='114'> +4.9501521e+02 </wgt>
<wgt id='115'> +4.8771869e+02 </wgt>
<wgt id='116'> +5.1803867e+02 </wgt>
<wgt id='117'> +5.0364968e+02 </wgt>
<wgt id='118'> +5.2692535e+02 </wgt>
<wgt id='119'> +4.8866295e+02 </wgt>
<wgt id='120'> +4.9532063e+02 </wgt>
<wgt id='121'> +4.9168980e+02 </wgt>
<wgt id='122'> +4.9858992e+02 </wgt>
<wgt id='123'> +5.1050823e+02 </wgt>
<wgt id='124'> +5.5340004e+02 </wgt>
<wgt id='125'> +5.5680846e+02 </wgt>
<wgt id='126'> +5.2341229e+02 </wgt>
<wgt id='127'> +5.1948809e+02 </wgt>
<wgt id='128'> +4.6215517e+02 </wgt>
<wgt id='129'> +5.6856367e+02 </wgt>
<wgt id='130'> +5.0436634e+02 </wgt>
<wgt id='131'> +5.3140228e+02 </wgt>
<wgt id='132'> +5.1795338e+02 </wgt>
<wgt id='133'> +5.1357552e+02 </wgt>
<wgt id='134'> +4.8447857e+02 </wgt>
<wgt id='135'> +5.1394079e+02 </wgt>
<wgt id='136'> +5.0608646e+02 </wgt>
<wgt id='137'> +4.8201138e+02 </wgt>
<wgt id='138'> +4.7162615e+02 </wgt>
<wgt id='139'> +5.1855358e+02 </wgt>
<wgt id='140'> +5.2550163e+02 </wgt>
<wgt id='141'> +5.1049747e+02 </wgt>
<wgt id='142'> +4.8469390e+02 </wgt>
<wgt id='143'> +5.0931792e+02 </wgt>
<wgt id='144'> +4.9658579e+02 </wgt>
<wgt id='145'> +5.0354504e+02 </wgt>
</rwgt>
</event>
<event>
 4      1 +5.0481800e+02 1.73344400e+02 7.54677100e-03 1.17440400e-01
       21 -1    0    0  501  502 +0.0000000000e+00 +0.0000000000e+00 +1.4739709892e+03 1.4739709892e+03 0.0000000000e+00 0.0000e+00 -1.0000e+00
       21 -1    0    0  502  503 -0.0000000000e+00 -0.0000000000e+00 -2.0933056348e+01 2.0933056348e+01 0.0000000000e+00 0.0000e+00 -1.0000e+00
        6  1    1    2  501    0 +6.1583669970e+00 -9.0198767100e+00 +8.4735792604e+02 8.6490678023e+02 1.7300000000e+02 0.0000e+00 1.0000e+00
       -6  1    1    2    0  503 -6.1583669970e+00 +9.0198767100e+00 +6.0568000683e+02 6.2999726534e+02 1.7300000000e+02 0.0000e+00 1.0000e+00
<mgrwt>
<rscale>  2 0.17334441E+03</rscale>
<asrwt>0</asrwt>
<pdfrwt beam="1">  1       21 0.22676469E+00 0.17334441E+03</pdfrwt>
<pdfrwt beam="2">  1       21 0.32204714E-02 0.17334441E+03</pdfrwt>
<totfact> 0.52194899E+04</totfact>
</mgrwt>
<rwgt>
<wgt id='1'> +6.7544054e+02 </wgt>
<wgt id='2'> +1.7658660e+03 </wgt>
<wgt id='3'> +5.0481800e+02 </wgt>
<wgt id='4'> +6.7544055e+02 </wgt>
<wgt id='5'> +5.0211086e+02 </wgt>
<wgt id='6'> +6.2254126e+02 </wgt>
<wgt id='7'> +1.7024687e+03 </wgt>
<wgt id='8'> +4.5772123e+02 </wgt>
<wgt id='9'> +6.2254126e+02 </wgt>
<wgt id='10'> +4.5520501e+02 </wgt>
<wgt id='11'> +5.6446155e+02 </wgt>
<wgt id='12'> +1.5986010e+03 </wgt>
<wgt id='13'> +4.1545676e+02 </wgt>
<wgt id='14'> +5.6446155e+02 </wgt>
<wgt id='15'> +4.1319305e+02 </wgt>
<wgt id='16'> +5.4771397e+02 </wgt>
<wgt id='17'> +1.3020205e+03 </wgt>
<wgt id='18'> +4.2362077e+02 </wgt>
<wgt id='19'> +5.4771397e+02 </wgt>
<wgt id='20'> +4.2153896e+02 </wgt>
<wgt id='21'> +1.2552760e+03 </wgt>
<wgt id='22'> +3.8409926e+02 </wgt>
<wgt id='23'> +5.0481800e+02 </wgt>
<wgt id='24'> +3.8215992e+02 </wgt>
<wgt id='25'> +4.5772123e+02 </wgt>
<wgt id='26'> +1.1786915e+03 </wgt>
<wgt id='27'> +3.4863280e+02 </wgt>
<wgt id='28'> +4.5772123e+02 </wgt>
<wgt id='29'> +3.4688947e+02 </wgt>
<wgt id='30'> +4.5961715e+02 </wgt>
<wgt id='31'> +9.9954126e+02 </wgt>
<wgt id='32'> +3.6085084e+02 </wgt>
<wgt id='33'> +4.5961715e+02 </wgt>
<wgt id='34'> +3.5916574e+02 </wgt>
<wgt id='35'> +4.2362077e+02 </wgt>
<wgt id='36'> +9.6365622e+02 </wgt>
<wgt id='37'> +3.2718542e+02 </wgt>
<wgt id='38'> +4.2362077e+02 </wgt>
<wgt id='39'> +3.2561344e+02 </wgt>
<wgt id='40'> +3.8409925e+02 </wgt>
<wgt id='41'> +9.0486348e+02 </wgt>
<wgt id='42'> +2.9697420e+02 </wgt>
<wgt id='43'> +3.8409926e+02 </wgt>
<wgt id='44'> +2.9556180e+02 </wgt>
<wgt id='45'> +5.0481800e+02 </wgt>
<wgt id='46'> +5.1683048e+02 </wgt>
<wgt id='47'> +5.3074056e+02 </wgt>
<wgt id='48'> +5.0300508e+02 </wgt>
<wgt id='49'> +4.5830050e+02 </wgt>
<wgt id='50'> +5.7906406e+02 </wgt>
<wgt id='51'> +4.7235854e+02 </wgt>
<wgt id='52'> +4.5584569e+02 </wgt>
<wgt id='53'> +5.1484522e+02 </wgt>
<wgt id='54'> +5.3986110e+02 </wgt>
<wgt id='55'> +5.9549799e+02 </wgt>
<wgt id='56'> +4.9352390e+02 </wgt>
<wgt id='57'> +5.4231061e+02 </wgt>
<wgt id='58'> +4.4922452e+02 </wgt>
<wgt id='59'> +5.5090236e+02 </wgt>
<wgt id='60'> +5.0468480e+02 </wgt>
<wgt id='61'> +4.2403676e+02 </wgt>
<wgt id='62'> +4.5512924e+02 </wgt>
<wgt id='63'> +5.3916842e+02 </wgt>
<wgt id='64'> +5.0925722e+02 </wgt>
<wgt id='65'> +4.2809886e+02 </wgt>
<wgt id='66'> +5.1668883e+02 </wgt>
<wgt id='67'> +5.0785314e+02 </wgt>
<wgt id='68'> +6.3702562e+02 </wgt>
<wgt id='69'> +5.6144535e+02 </wgt>
<wgt id='70'> +5.7004510e+02 </wgt>
<wgt id='71'> +4.5434921e+02 </wgt>
<wgt id='72'> +4.5174234e+02 </wgt>
<wgt id='73'> +4.5283519e+02 </wgt>
<wgt id='74'> +5.9952514e+02 </wgt>
<wgt id='75'> +5.6967997e+02 </wgt>
<wgt id='76'> +5.2189998e+02 </wgt>
<wgt id='77'> +4.6814248e+02 </wgt>
<wgt id='78'> +4.2371655e+02 </wgt>
<wgt id='79'> +5.5836106e+02 </wgt>
<wgt id='80'> +4.3201482e+02 </wgt>
<wgt id='81'> +5.3604986e+02 </wgt>
<wgt id='82'> +5.0046835e+02 </wgt>
<wgt id='83'> +4.9461951e+02 </wgt>
<wgt id='84'> +4.7382670e+02 </wgt>
<wgt id='85'> +4.4083928e+02 </wgt>
<wgt id='86'> +5.4045597e+02 </wgt>
<wgt id='87'> +4.9248548e+02 </wgt>
<wgt id='88'> +4.9238894e+02 </wgt>
<wgt id='89'> +3.9947198e+02 </wgt>
<wgt id='90'> +4.5244132e+02 </wgt>
<wgt id='91'> +4.1709672e+02 </wgt>
<wgt id='92'> +4.7820407e+02 </wgt>
<wgt id='93'> +5.1617683e+02 </wgt>
<wgt id='94'> +4.5779669e+02 </wgt>
<wgt id='95'> +5.3384118e+02 </wgt>
<wgt id='96'> +5.2446175e+02 </wgt>
<wgt id='97'> +4.4488415e+02 </wgt>
<wgt id='98'> +5.6404100e+02 </wgt>
<wgt id='99'> +4.1059046e+02 </wgt>
<wgt id='100'> +3.6517839e+02 </wgt>
<wgt id='101'> +5.9236058e+02 </wgt>
<wgt id='102'> +5.7805501e+02 </wgt>
<wgt id='103'> +4.6113464e+02 </wgt>
<wgt id='104'> +5.4884041e+02 </wgt>
<wgt id='105'> +5.1430591e+02 </wgt>
<wgt id='106'> +5.0438896e+02 </wgt>
<wgt id='107'> +4.9954484e+02 </wgt>
<wgt id='108'> +4.8061986e+02 </wgt>
<wgt id='109'> +5.0615214e+02 </wgt>
<wgt id='110'> +4.5096240e+02 </wgt>
<wgt id='111'> +4.8666206e+02 </wgt>
<wgt id='112'> +5.3579897e+02 </wgt>
<wgt id='113'> +5.6078958e+02 </wgt>
<wgt id='114'> +5.2793960e+02 </wgt>
<wgt id='115'> +4.6247559e+02 </wgt>
<wgt id='116'> +5.6182460e+02 </wgt>
<wgt id='117'> +4.9696920e+02 </wgt>
<wgt id='118'> +5.1286135e+02 </wgt>
<wgt id='119'> +5.7025217e+02 </wgt>
<wgt id='120'> +5.0408794e+02 </wgt>
<wgt id='121'> +4.9037036e+02 </wgt>
<wgt id='122'> +4.9023780e+02 </wgt>
<wgt id='123'> +4.6931968e+02 </wgt>
<wgt id='124'> +5.6522005e+02 </wgt>
<wgt id='125'> +6.5665429e+02 </wgt>
<wgt id='126'> +4.8692114e+02 </wgt>
<wgt id='127'> +4.7105514e+02 </wgt>
<wgt id='128'> +4.9693061e+02 </wgt>
<wgt id='129'> +4.9570037e+02 </wgt>
<wgt id='130'> +5.0957921e+02 </wgt>
<wgt id='131'> +4.4698529e+02 </wgt>
<wgt id='132'> +5.5169287e+02 </wgt>
<wgt id='133'> +5.5840746e+02 </wgt>
<wgt id='134'> +5.4434638e+02 </wgt>
<wgt id='135'> +4.7551639e+02 </wgt>
<wgt id='136'> +6.1138942e+02 </wgt>
<wgt id='137'> +5.5110640e+02 </wgt>
<wgt id='138'> +5.2966327e+02 </wgt>
<wgt id='139'> +5.2189675e+02 </wgt>
<wgt id='140'> +4.8681250e+02 </wgt>
<wgt id='141'> +5.9690664e+02 </wgt>
<wgt id='142'> +3.1665916e+02 </wgt>
<wgt id='143'> +5.1560477e+02 </wgt>
<wgt id='144'> +4.4936517e+02 </wgt>
<wgt id='145'> +4.5553322e+02 </wgt>
</rwgt>
</event>
<event>
 4      1 +5.0481800e+02 1.76147300e+02 7.54677100e-03 1.17158500e-01
       21 -1    0    0  501  502 +0.0000000000e+00 +0.0000000000e+00 +6.9878984409e+01 6.9878984409e+01 0.0000000000e+00 0.0000e+00 1.0000e+00
       21 -1    0    0  502  503 -0.0000000000e+00 -0.0000000000e+00 -4.8201864420e+02 4.8201864420e+02 0.0000000000e+00 0.0000e+00 1.0000e+00
        6  1    1    2  501    0 +1.9099579104e+01 -2.7093742675e+01 -1.2859431719e+02 2.1809255656e+02 1.7300000000e+02 0.0000e+00 1.0000e+00
       -6  1    1    2    0  503 -1.9099579104e+01 +2.7093742675e+01 -2.8354534260e+02 3.3380507205e+02 1.7300000000e+02 0.0000e+00 1.0000e+00
<mgrwt>
<rscale>  2 0.17614728E+03</rscale>
<asrwt>0</asrwt>
<pdfrwt beam="1">  1       21 0.10750613E-01 0.17614728E+03</pdfrwt>
<pdfrwt beam="2">  1       21 0.74156715E-01 0.17614728E+03</pdfrwt>
<totfact> 0.11711088E+05</totfact>
</mgrwt>
<rwgt>
<wgt id='1'> +6.4440437e+02 </wgt>
<wgt id='2'> +8.1656499e+02 </wgt>
<wgt id='3'> +5.0481800e+02 </wgt>
<wgt id='4'> +6.4440436e+02 </wgt>
<wgt id='5'> +4.9779852e+02 </wgt>
<wgt id='6'> +6.2208248e+02 </wgt>
<wgt id='7'> +7.9621266e+02 </wgt>
<wgt id='8'> +4.7753363e+02 </wgt>
<wgt id='9'> +6.2208248e+02 </wgt>
<wgt id='10'> +4.7063342e+02 </wgt>
<wgt id='11'> +5.8846021e+02 </wgt>
<wgt id='12'> +7.6750591e+02 </wgt>
<wgt id='13'> +4.5066522e+02 </wgt>
<wgt id='14'> +5.8846021e+02 </wgt>
<wgt id='15'> +4.4413002e+02 </wgt>
<wgt id='16'> +5.2293214e+02 </wgt>
<wgt id='17'> +6.4747588e+02 </wgt>
<wgt id='18'> +4.2385134e+02 </wgt>
<wgt id='19'> +5.2293214e+02 </wgt>
<wgt id='20'> +4.1850540e+02 </wgt>
<wgt id='21'> +6.3133799e+02 </wgt>
<wgt id='22'> +4.0094305e+02 </wgt>
<wgt id='23'> +5.0481800e+02 </wgt>
<wgt id='24'> +3.9566736e+02 </wgt>
<wgt id='25'> +4.7753364e+02 </wgt>
<wgt id='26'> +6.0857565e+02 </wgt>
<wgt id='27'> +3.7838400e+02 </wgt>
<wgt id='28'> +4.7753363e+02 </wgt>
<wgt id='29'> +3.7338563e+02 </wgt>
<wgt id='30'> +4.3906019e+02 </wgt>
<wgt id='31'> +5.2682478e+02 </wgt>
<wgt id='32'> +3.6115464e+02 </wgt>
<wgt id='33'> +4.3906019e+02 </wgt>
<wgt id='34'> +3.5686768e+02 </wgt>
<wgt id='35'> +4.2385134e+02 </wgt>
<wgt id='36'> +5.1369403e+02 </wgt>
<wgt id='37'> +3.4163498e+02 </wgt>
<wgt id='38'> +4.2385134e+02 </wgt>
<wgt id='39'> +3.3739325e+02 </wgt>
<wgt id='40'> +4.0094306e+02 </wgt>
<wgt id='41'> +4.9517325e+02 </wgt>
<wgt id='42'> +3.2241289e+02 </wgt>
<wgt id='43'> +4.0094305e+02 </wgt>
<wgt id='44'> +3.1839318e+02 </wgt>
<wgt id='45'> +5.0481800e+02 </wgt>
<wgt id='46'> +5.0812688e+02 </wgt>
<wgt id='47'> +5.1862927e+02 </wgt>
<wgt id='48'> +5.0612099e+02 </wgt>
<wgt id='49'> +5.0152090e+02 </wgt>
<wgt id='50'> +5.8296915e+02 </wgt>
<wgt id='51'> +4.9467529e+02 </wgt>
<wgt id='52'> +5.0398059e+02 </wgt>
<wgt id='53'> +5.0469867e+02 </wgt>
<wgt id='54'> +5.0920642e+02 </wgt>
<wgt id='55'> +4.6685670e+02 </wgt>
<wgt id='56'> +4.6905332e+02 </wgt>
<wgt id='57'> +4.9950727e+02 </wgt>
<wgt id='58'> +5.0527474e+02 </wgt>
<wgt id='59'> +5.0935359e+02 </wgt>
<wgt id='60'> +4.9550420e+02 </wgt>
<wgt id='61'> +4.7047299e+02 </wgt>
<wgt id='62'> +4.9719237e+02 </wgt>
<wgt id='63'> +5.0577155e+02 </wgt>
<wgt id='64'> +4.9905631e+02 </wgt>
<wgt id='65'> +5.7195999e+02 </wgt>
<wgt id='66'> +4.9412385e+02 </wgt>
<wgt id='67'> +5.0853917e+02 </wgt>
<wgt id='68'> +5.4455329e+02 </wgt>
<wgt id='69'> +4.9387303e+02 </wgt>
<wgt id='70'> +4.9808552e+02 </wgt>
<wgt id='71'> +5.1265750e+02 </wgt>
<wgt id='72'> +4.9451048e+02 </wgt>
<wgt id='73'> +4.9659035e+02 </wgt>
<wgt id='74'> +5.2326164e+02 </wgt>
<wgt id='75'> +5.1426473e+02 </wgt>
<wgt id='76'> +4.9538948e+02 </wgt>
<wgt id='77'> +4.9119701e+02 </wgt>
<wgt id='78'> +4.9670115e+02 </wgt>
<wgt id='79'> +4.9138981e+02 </wgt>
<wgt id='80'> +4.9743418e+02 </wgt>
<wgt id='81'> +4.9675977e+02 </wgt>
<wgt id='82'> +5.0898475e+02 </wgt>
<wgt id='83'> +5.1041820e+02 </wgt>
<wgt id='84'> +5.4382677e+02 </wgt>
<wgt id='85'> +5.2202398e+02 </wgt>
<wgt id='86'> +5.0240741e+02 </wgt>
<wgt id='87'> +5.0617652e+02 </wgt>
<wgt id='88'> +5.0794034e+02 </wgt>
<wgt id='89'> +5.1448568e+02 </wgt>
<wgt id='90'> +5.1312048e+02 </wgt>
<wgt id='91'> +5.2729696e+02 </wgt>
<wgt id='92'> +4.7004760e+02 </wgt>
<wgt id='93'> +4.9859453e+02 </wgt>
<wgt id='94'> +4.9942382e+02 </wgt>
<wgt id='95'> +4.9285249e+02 </wgt>
<wgt id='96'> +5.3759731e+02 </wgt>
<wgt id='97'> +5.0739230e+02 </wgt>
<wgt id='98'> +4.8717843e+02 </wgt>
<wgt id='99'> +4.8775277e+02 </wgt>
<wgt id='100'> +4.9230416e+02 </wgt>
<wgt id='101'> +5.3780433e+02 </wgt>
<wgt id='102'> +5.0055841e+02 </wgt>
<wgt id='103'> +5.4315968e+02 </wgt>
<wgt id='104'> +5.0387811e+02 </wgt>
<wgt id='105'> +5.2412131e+02 </wgt>
<wgt id='106'> +4.6828579e+02 </wgt>
<wgt id='107'> +4.9439841e+02 </wgt>
<wgt id='108'> +4.5433073e+02 </wgt>
<wgt id='109'> +4.7822932e+02 </wgt>
<wgt id='110'> +5.0521102e+02 </wgt>
<wgt id='111'> +4.9288349e+02 </wgt>
<wgt id='112'> +4.8163192e+02 </wgt>
<wgt id='113'> +4.6897843e+02 </wgt>
<wgt id='114'> +5.0103534e+02 </wgt>
<wgt id='115'> +4.9277923e+02 </wgt>
<wgt id='116'> +5.0883525e+02 </wgt>
<wgt id='117'> +5.0524990e+02 </wgt>
<wgt id='118'> +5.1978637e+02 </wgt>
<wgt id='119'> +4.9062401e+02 </wgt>
<wgt id='120'> +4.9628194e+02 </wgt>
<wgt id='121'> +4.9541063e+02 </wgt>
<wgt id='122'> +4.9982447e+02 </wgt>
<wgt id='123'> +5.0769219e+02 </wgt>
<wgt id='124'> +5.4280369e+02 </wgt>
<wgt id='125'> +5.4563963e+02 </wgt>
<wgt id='126'> +5.1987154e+02 </wgt>
<wgt id='127'> +5.1754730e+02 </wgt>
<wgt id='128'> +4.6536902e+02 </wgt>
<wgt id='129'> +5.6523782e+02 </wgt>
<wgt id='130'> +5.0133430e+02 </wgt>
<wgt id='131'> +5.3266649e+02 </wgt>
<wgt id='132'> +5.1395566e+02 </wgt>
<wgt id='133'> +5.0730518e+02 </wgt>
<wgt id='134'> +4.8409989e+02 </wgt>
<wgt id='135'> +5.1488556e+02 </wgt>
<wgt id='136'> +5.0139446e+02 </wgt>
<wgt id='137'> +4.7854722e+02 </wgt>
<wgt id='138'> +4.6327219e+02 </wgt>
<wgt id='139'> +5.1625477e+02 </wgt>
<wgt id='140'> +5.2823421e+02 </wgt>
<wgt id='141'> +5.0617308e+02 </wgt>
<wgt id='142'> +4.9536869e+02 </wgt>
<wgt id='143'> +5.0802983e+02 </wgt>
<wgt id='144'> +5.0302538e+02 </wgt>
<wgt id='145'> +5.0428818e+02 </wgt>
</rwgt>
</event>
<event>
 4      1 +5.0481800e+02 1.96250600e+02 7.54677100e-03 1.15294200e-01
       21 -1    0    0  501  502 +0.0000000000e+00 +0.0000000000e+00 +3.0591210125e+02 3.0591210125e+02 0.0000000000e+00 0.0000e+00 1.0000e+00
       21 -1    0    0  502  503 -0.0000000000e+00 -0.0000000000e+00 -1.4941255964e+02 1.4941255964e+02 0.0000000000e+00 0.0000e+00 1.0000e+00
        6  1    1    2  501    0 +4.7444167863e+01 -7.9588569023e+01 +1.6856248878e+02 2.5870369539e+02 1.7300000000e+02 0.0000e+00 1.0000e+00
       -6  1    1    2    0  503 -4.7444167863e+01 +7.9588569023e+01 -1.2062947169e+01 1.9662096551e+02 1.7300000000e+02 0.0000e+00 1.0000e+00
<mgrwt>
<rscale>  2 0.19625058E+03</rscale>
<asrwt>0</asrwt>
<pdfrwt beam="1">  1       21 0.47063400E-01 0.19625058E+03</pdfrwt>
<pdfrwt beam="2">  1       21 0.22986548E-01 0.19625058E+03</pdfrwt>
<totfact> 0.76650431E+04</totfact>
</mgrwt>
<rwgt>
<wgt id='1'> +6.4694128e+02 </wgt>
<wgt id='2'> +5.4245358e+02 </wgt>
<wgt id='3'> +5.0481800e+02 </wgt>
<wgt id='4'> +6.4694128e+02 </wgt>
<wgt id='5'> +4.9010147e+02 </wgt>
<wgt id='6'> +6.1890262e+02 </wgt>
<wgt id='7'> +5.1130071e+02 </wgt>
<wgt id='8'> +4.7450066e+02 </wgt>
<wgt id='9'> +6.1890263e+02 </wgt>
<wgt id='10'> +4.6058217e+02 </wgt>
<wgt id='11'> +5.8173382e+02 </wgt>
<wgt id='12'> +4.8036958e+02 </wgt>
<wgt id='13'> +4.4576157e+02 </wgt>
<wgt id='14'> +5.8173382e+02 </wgt>
<wgt id='15'> +4.3268173e+02 </wgt>
<wgt id='16'> +5.2768818e+02 </wgt>
<wgt id='17'> +4.5379248e+02 </wgt>
<wgt id='18'> +4.2521784e+02 </wgt>
<wgt id='19'> +5.2768819e+02 </wgt>
<wgt id='20'> +4.1358438e+02 </wgt>
<wgt id='21'> +4.2773138e+02 </wgt>
<wgt id='22'> +3.9968097e+02 </wgt>
<wgt id='23'> +5.0481800e+02 </wgt>
<wgt id='24'> +3.8867377e+02 </wgt>
<wgt id='25'> +4.7450066e+02 </wgt>
<wgt id='26'> +4.0185578e+02 </wgt>
<wgt id='27'> +3.7547348e+02 </wgt>
<wgt id='28'> +4.7450066e+02 </wgt>
<wgt id='29'> +3.6512929e+02 </wgt>
<wgt id='30'> +4.4448183e+02 </wgt>
<wgt id='31'> +3.8596045e+02 </wgt>
<wgt id='32'> +3.6303278e+02 </wgt>
<wgt id='33'> +4.4448184e+02 </wgt>
<wgt id='34'> +3.5364320e+02 </wgt>
<wgt id='35'> +4.2521784e+02 </wgt>
<wgt id='36'> +3.6379491e+02 </wgt>
<wgt id='37'> +3.4123049e+02 </wgt>
<wgt id='38'> +4.2521784e+02 </wgt>
<wgt id='39'> +3.3234292e+02 </wgt>
<wgt id='40'> +3.9968097e+02 </wgt>
<wgt id='41'> +3.4178715e+02 </wgt>
<wgt id='42'> +3.2056318e+02 </wgt>
<wgt id='43'> +3.9968097e+02 </wgt>
<wgt id='44'> +3.1221076e+02 </wgt>
<wgt id='45'> +5.0481800e+02 </wgt>
<wgt id='46'> +5.0416392e+02 </wgt>
<wgt id='47'> +5.2214789e+02 </wgt>
<wgt id='48'> +5.0578685e+02 </wgt>
<wgt id='49'> +5.0383492e+02 </wgt>
<wgt id='50'> +5.8641968e+02 </wgt>
<wgt id='51'> +4.9513139e+02 </wgt>
<wgt id='52'> +5.0184738e+02 </wgt>
<wgt id='53'> +5.1126212e+02 </wgt>
<wgt id='54'> +5.0768966e+02 </wgt>
<wgt id='55'> +4.5184204e+02 </wgt>
<wgt id='56'> +4.7066949e+02 </wgt>
<wgt id='57'> +4.9154419e+02 </wgt>
<wgt id='58'> +5.0891323e+02 </wgt>
<wgt id='59'> +4.9680040e+02 </wgt>
<wgt id='60'> +4.8374320e+02 </wgt>
<wgt id='61'> +4.9313924e+02 </wgt>
<wgt id='62'> +4.9809924e+02 </wgt>
<wgt id='63'> +5.0523732e+02 </wgt>
<wgt id='64'> +5.0082919e+02 </wgt>
<wgt id='65'> +5.9477101e+02 </wgt>
<wgt id='66'> +4.9273303e+02 </wgt>
<wgt id='67'> +5.0934879e+02 </wgt>
<wgt id='68'> +5.3963415e+02 </wgt>
<wgt id='69'> +4.9145546e+02 </wgt>
<wgt id='70'> +4.9663053e+02 </wgt>
<wgt id='71'> +5.1441810e+02 </wgt>
<wgt id='72'> +4.9233683e+02 </wgt>
<wgt id='73'> +4.9860536e+02 </wgt>
<wgt id='74'> +5.1889849e+02 </wgt>
<wgt id='75'> +5.1565600e+02 </wgt>
<wgt id='76'> +4.9044922e+02 </wgt>
<wgt id='77'> +4.8599886e+02 </wgt>
<wgt id='78'> +5.0594277e+02 </wgt>
<wgt id='79'> +4.8387458e+02 </wgt>
<wgt id='80'> +5.0085006e+02 </wgt>
<wgt id='81'> +4.9589121e+02 </wgt>
<wgt id='82'> +5.1873874e+02 </wgt>
<wgt id='83'> +5.1471668e+02 </wgt>
<wgt id='84'> +5.5365912e+02 </wgt>
<wgt id='85'> +5.3101631e+02 </wgt>
<wgt id='86'> +5.0102436e+02 </wgt>
<wgt id='87'> +5.0455459e+02 </wgt>
<wgt id='88'> +5.1317991e+02 </wgt>
<wgt id='89'> +5.1634796e+02 </wgt>
<wgt id='90'> +5.1025252e+02 </wgt>
<wgt id='91'> +5.3716824e+02 </wgt>
<wgt id='92'> +4.6624249e+02 </wgt>
<wgt id='93'> +4.9574750e+02 </wgt>
<wgt id='94'> +5.0275466e+02 </wgt>
<wgt id='95'> +4.8478314e+02 </wgt>
<wgt id='96'> +5.4408515e+02 </wgt>
<wgt id='97'> +5.1306686e+02 </wgt>
<wgt id='98'> +4.8153717e+02 </wgt>
<wgt id='99'> +4.9057398e+02 </wgt>
<wgt id='100'> +5.0229099e+02 </wgt>
<wgt id='101'> +5.2847115e+02 </wgt>
<wgt id='102'> +4.8897796e+02 </wgt>
<wgt id='103'> +5.4727510e+02 </wgt>
<wgt id='104'> +5.0348355e+02 </wgt>
<wgt id='105'> +5.2526170e+02 </wgt>
<wgt id='106'> +4.6596402e+02 </wgt>
<wgt id='107'> +4.9996841e+02 </wgt>
<wgt id='108'> +4.5396010e+02 </wgt>
<wgt id='109'> +4.7525516e+02 </wgt>
<wgt id='110'> +5.0606788e+02 </wgt>
<wgt id='111'> +4.9221095e+02 </wgt>
<wgt id='112'> +4.8255198e+02 </wgt>
<wgt id='113'> +4.6435157e+02 </wgt>
<wgt id='114'> +5.0489247e+02 </wgt>
<wgt id='115'> +5.0698511e+02 </wgt>
<wgt id='116'> +5.0311802e+02 </wgt>
<wgt id='117'> +5.1193423e+02 </wgt>
<wgt id='118'> +5.1632829e+02 </wgt>
<wgt id='119'> +4.8577092e+02 </wgt>
<wgt id='120'> +5.0351603e+02 </wgt>
<wgt id='121'> +4.9117178e+02 </wgt>
<wgt id='122'> +4.9849727e+02 </wgt>
<wgt id='123'> +5.1091506e+02 </wgt>
<wgt id='124'> +5.3734743e+02 </wgt>
<wgt id='125'> +5.3870382e+02 </wgt>
<wgt id='126'> +5.2354637e+02 </wgt>
<wgt id='127'> +5.1922561e+02 </wgt>
<wgt id='128'> +4.6959367e+02 </wgt>
<wgt id='129'> +5.7076944e+02 </wgt>
<wgt id='130'> +5.0838964e+02 </wgt>
<wgt id='131'> +5.4055913e+02 </wgt>
<wgt id='132'> +4.9872965e+02 </wgt>
<wgt id='133'> +5.0047301e+02 </wgt>
<wgt id='134'> +4.7489360e+02 </wgt>
<wgt id='135'> +5.1772612e+02 </wgt>
<wgt id='136'> +4.8356410e+02 </wgt>
<wgt id='137'> +4.7516923e+02 </wgt>
<wgt id='138'> +4.5818956e+02 </wgt>
<wgt id='139'> +5.1398535e+02 </wgt>
<wgt id='140'> +5.3694658e+02 </wgt>
<wgt id='141'> +5.0373664e+02 </wgt>
<wgt id='142'> +5.0930595e+02 </wgt>
<wgt id='143'> +5.0004933e+02 </wgt>
<wgt id='144'> +5.0511629e+02 </wgt>
<wgt id='145'> +5.0597678e+02 </wgt>
</rwgt>
</event>
<event>
 4      1 +5.0481800e+02 1.75013800e+02 7.54677100e-03 1.17271800e-01
       21 -1    0    0  503  502 +0.0000000000e+00 +0.0000000000e+00 +1.8880062044e+02 1.8880062044e+02 0.0000000000e+00 0.0000e+00 1.0000e+00
       21 -1    0    0  501  503 -0.0000000000e+00 -0.0000000000e+00 -3.6048722975e+02 3.6048722975e+02 0.0000000000e+00 0.0000e+00 1.0000e+00
        6  1    1    2  501    0 +2.5198380912e+01 +8.1151526897e+00 -2.8951729497e+02 3.3830471204e+02 1.7300000000e+02 0.0000e+00 -1.0000e+00
       -6  1    1    2    0  502 -2.5198380912e+01 -8.1151526897e+00 +1.1783068565e+02 2.1098313815e+02 1.7300000000e+02 0.0000e+00 -1.0000e+00
<mgrwt>
<rscale>  2 0.17501375E+03</rscale>
<asrwt>0</asrwt>
<pdfrwt beam="1">  1       21 0.29046249E-01 0.17501375E+03</pdfrwt>
<pdfrwt beam="2">  1       21 0.55459574E-01 0.17501375E+03</pdfrwt>
<totfact> 0.35100892E+04</totfact>
</mgrwt>
<rwgt>
<wgt id='1'> +6.5830864e+02 </wgt>
<wgt id='2'> +9.2285474e+02 </wgt>
<wgt id='3'> +5.0481800e+02 </wgt>
<wgt id='4'> +6.5830864e+02 </wgt>
<wgt id='5'> +4.3659001e+02 </wgt>
<wgt id='6'> +6.2226950e+02 </wgt>
<wgt id='7'> +8.8004199e+02 </wgt>
<wgt id='8'> +4.6887288e+02 </wgt>
<wgt id='9'> +6.2226949e+02 </wgt>
<wgt id='10'> +4.0523314e+02 </wgt>
<wgt id='11'> +5.7796135e+02 </wgt>
<wgt id='12'> +8.3343632e+02 </wgt>
<wgt id='13'> +4.3534607e+02 </wgt>
<wgt id='14'> +5.7796135e+02 </wgt>
<wgt id='15'> +3.7650402e+02 </wgt>
<wgt id='16'> +5.3405487e+02 </wgt>
<wgt id='17'> +7.2612848e+02 </wgt>
<wgt id='18'> +4.2375950e+02 </wgt>
<wgt id='19'> +5.3405486e+02 </wgt>
<wgt id='20'> +3.6987212e+02 </wgt>
<wgt id='21'> +6.9244218e+02 </wgt>
<wgt id='22'> +3.9358609e+02 </wgt>
<wgt id='23'> +5.0481800e+02 </wgt>
<wgt id='24'> +3.4330708e+02 </wgt>
<wgt id='25'> +4.6887289e+02 </wgt>
<wgt id='26'> +6.5577151e+02 </wgt>
<wgt id='27'> +3.6544266e+02 </wgt>
<wgt id='28'> +4.6887288e+02 </wgt>
<wgt id='29'> +3.1896822e+02 </wgt>
<wgt id='30'> +4.4830182e+02 </wgt>
<wgt id='31'> +5.8611206e+02 </wgt>
<wgt id='32'> +3.6103327e+02 </wgt>
<wgt id='33'> +4.4830181e+02 </wgt>
<wgt id='34'> +3.1735719e+02 </wgt>
<wgt id='35'> +4.2375951e+02 </wgt>
<wgt id='36'> +5.5892135e+02 </wgt>
<wgt id='37'> +3.3532622e+02 </wgt>
<wgt id='38'> +4.2375950e+02 </wgt>
<wgt id='39'> +2.9456388e+02 </wgt>
<wgt id='40'> +3.9358609e+02 </wgt>
<wgt id='41'> +5.2932174e+02 </wgt>
<wgt id='42'> +3.1134867e+02 </wgt>
<wgt id='43'> +3.9358609e+02 </wgt>
<wgt id='44'> +2.7368069e+02 </wgt>
<wgt id='45'> +5.0481800e+02 </wgt>
<wgt id='46'> +5.0822690e+02 </wgt>
<wgt id='47'> +5.2501404e+02 </wgt>
<wgt id='48'> +5.0844396e+02 </wgt>
<wgt id='49'> +5.0369664e+02 </wgt>
<wgt id='50'> +6.0091443e+02 </wgt>
<wgt id='51'> +4.9494800e+02 </wgt>
<wgt id='52'> +5.0309487e+02 </wgt>
<wgt id='53'> +5.0809431e+02 </wgt>
<wgt id='54'> +5.0777427e+02 </wgt>
<wgt id='55'> +4.4907524e+02 </wgt>
<wgt id='56'> +4.6479287e+02 </wgt>
<wgt id='57'> +4.9100356e+02 </wgt>
<wgt id='58'> +5.0529883e+02 </wgt>
<wgt id='59'> +5.0101378e+02 </wgt>
<wgt id='60'> +4.8714594e+02 </wgt>
<wgt id='61'> +4.8419157e+02 </wgt>
<wgt id='62'> +4.9882227e+02 </wgt>
<wgt id='63'> +5.0509384e+02 </wgt>
<wgt id='64'> +4.9689584e+02 </wgt>
<wgt id='65'> +5.9755278e+02 </wgt>
<wgt id='66'> +4.9292439e+02 </wgt>
<wgt id='67'> +5.0932645e+02 </wgt>
<wgt id='68'> +5.4550241e+02 </wgt>
<wgt id='69'> +4.9593764e+02 </wgt>
<wgt id='70'> +4.9522489e+02 </wgt>
<wgt id='71'> +5.1451747e+02 </wgt>
<wgt id='72'> +4.8458206e+02 </wgt>
<wgt id='73'> +4.9656217e+02 </wgt>
<wgt id='74'> +5.2383839e+02 </wgt>
<wgt id='75'> +5.1700724e+02 </wgt>
<wgt id='76'> +4.8874008e+02 </wgt>
<wgt id='77'> +4.8806662e+02 </wgt>
<wgt id='78'> +5.0138333e+02 </wgt>
<wgt id='79'> +4.8555982e+02 </wgt>
<wgt id='80'> +4.9902858e+02 </wgt>
<wgt id='81'> +4.9369331e+02 </wgt>
<wgt id='82'> +5.1667659e+02 </wgt>
<wgt id='83'> +5.1729571e+02 </wgt>
<wgt id='84'> +5.5765490e+02 </wgt>
<wgt id='85'> +5.3227685e+02 </wgt>
<wgt id='86'> +5.0343119e+02 </wgt>
<wgt id='87'> +5.0618570e+02 </wgt>
<wgt id='88'> +5.1461800e+02 </wgt>
<wgt id='89'> +5.1928112e+02 </wgt>
<wgt id='90'> +5.1220496e+02 </wgt>
<wgt id='91'> +5.3706096e+02 </wgt>
<wgt id='92'> +4.5718129e+02 </wgt>
<wgt id='93'> +4.9782666e+02 </wgt>
<wgt id='94'> +4.9967898e+02 </wgt>
<wgt id='95'> +4.8225411e+02 </wgt>
<wgt id='96'> +5.5105464e+02 </wgt>
<wgt id='97'> +5.1089725e+02 </wgt>
<wgt id='98'> +4.8145802e+02 </wgt>
<wgt id='99'> +4.8864939e+02 </wgt>
<wgt id='100'> +4.9522763e+02 </wgt>
<wgt id='101'> +5.3787499e+02 </wgt>
<wgt id='102'> +4.9553232e+02 </wgt>
<wgt id='103'> +5.5274012e+02 </wgt>
<wgt id='104'> +5.0551062e+02 </wgt>
<wgt id='105'> +5.2296452e+02 </wgt>
<wgt id='106'> +4.5766321e+02 </wgt>
<wgt id='107'> +4.9268282e+02 </wgt>
<wgt id='108'> +4.4532105e+02 </wgt>
<wgt id='109'> +4.7007818e+02 </wgt>
<wgt id='110'> +5.0488212e+02 </wgt>
<wgt id='111'> +4.8928161e+02 </wgt>
<wgt id='112'> +4.7761450e+02 </wgt>
<wgt id='113'> +4.5947859e+02 </wgt>
<wgt id='114'> +4.9787816e+02 </wgt>
<wgt id='115'> +4.9949960e+02 </wgt>
<wgt id='116'> +5.0930620e+02 </wgt>
<wgt id='117'> +5.0955043e+02 </wgt>
<wgt id='118'> +5.2247072e+02 </wgt>
<wgt id='119'> +4.8287217e+02 </wgt>
<wgt id='120'> +4.9883303e+02 </wgt>
<wgt id='121'> +4.8871886e+02 </wgt>
<wgt id='122'> +4.9748265e+02 </wgt>
<wgt id='123'> +5.1272576e+02 </wgt>
<wgt id='124'> +5.4579635e+02 </wgt>
<wgt id='125'> +5.4624952e+02 </wgt>
<wgt id='126'> +5.2681522e+02 </wgt>
<wgt id='127'> +5.2211212e+02 </wgt>
<wgt id='128'> +4.6432847e+02 </wgt>
<wgt id='129'> +5.7553513e+02 </wgt>
<wgt id='130'> +5.0965064e+02 </wgt>
<wgt id='131'> +5.4164078e+02 </wgt>
<wgt id='132'> +5.0310741e+02 </wgt>
<wgt id='133'> +5.0487807e+02 </wgt>
<wgt id='134'> +4.7464398e+02 </wgt>
<wgt id='135'> +5.1836357e+02 </wgt>
<wgt id='136'> +4.8640416e+02 </wgt>
<wgt id='137'> +4.7573487e+02 </wgt>
<wgt id='138'> +4.6160660e+02 </wgt>
<wgt id='139'> +5.1687686e+02 </wgt>
<wgt id='140'> +5.3544150e+02 </wgt>
<wgt id='141'> +5.0490566e+02 </wgt>
<wgt id='142'> +5.0387269e+02 </wgt>
<wgt id='143'> +5.0226578e+02 </wgt>
<wgt id='144'> +5.0194918e+02 </wgt>
<wgt id='145'> +5.0622343e+02 </wgt>
</rwgt>
</event>
<event>
 4      1 +5.0481800e+02 1.96529700e+02 7.54677100e-03 1.15270000e-01
       21 -1    0    0  501  502 +0.0000000000e+00 +0.0000000000e+00 +1.0714713659e+02 1.0714713659e+02 0.0000000000e+00 0.0000e+00 -1.0000e+00
       21 -1    0    0  502  503 -0.0000000000e+00 -0.0000000000e+00 -4.1065250485e+02 4.1065250485e+02 0.0000000000e+00 0.0000e+00 -1.0000e+00
        6  1    1    2  501    0 +8.0883477842e+01 +4.6397984793e+01 -6.1252974069e+01 2.0585392105e+02 1.7300000000e+02 0.0000e+00 -1.0000e+00
       -6  1    1    2    0  503 -8.0883477842e+01 -4.6397984793e+01 -2.4225239419e+02 3.1194572039e+02 1.7300000000e+02 0.0000e+00 -1.0000e+00
<mgrwt>
<rscale>  2 0.19652967E+03</rscale>
<asrwt>0</asrwt>
<pdfrwt beam="1">  1       21 0.16484175E-01 0.19652967E+03</pdfrwt>
<pdfrwt beam="2">  1       21 0.63177308E-01 0.19652967E+03</pdfrwt>
<totfact> 0.76408484E+04</totfact>
</mgrwt>
<rwgt>
<wgt id='1'> +6.4740290e+02 </wgt>
<wgt id='2'> +5.6607727e+02 </wgt>
<wgt id='3'> +5.0481800e+02 </wgt>
<wgt id='4'> +6.4740291e+02 </wgt>
<wgt id='5'> +4.9353259e+02 </wgt>
<wgt id='6'> +6.1885758e+02 </wgt>
<wgt id='7'> +5.3489005e+02 </wgt>
<wgt id='8'> +4.7412613e+02 </wgt>
<wgt id='9'> +6.1885759e+02 </wgt>
<wgt id='10'> +4.6344413e+02 </wgt>
<wgt id='11'> +5.8123234e+02 </wgt>
<wgt id='12'> +5.0217637e+02 </wgt>
<wgt id='13'> +4.4505749e+02 </wgt>
<wgt id='14'> +5.8123235e+02 </wgt>
<wgt id='15'> +4.3502668e+02 </wgt>
<wgt id='16'> +5.2810315e+02 </wgt>
<wgt id='17'> +4.7088566e+02 </wgt>
<wgt id='18'> +4.2523324e+02 </wgt>
<wgt id='19'> +5.2810315e+02 </wgt>
<wgt id='20'> +4.1632678e+02 </wgt>
<wgt id='21'> +4.4494288e+02 </wgt>
<wgt id='22'> +3.9937995e+02 </wgt>
<wgt id='23'> +5.0481800e+02 </wgt>
<wgt id='24'> +3.9094522e+02 </wgt>
<wgt id='25'> +4.7412613e+02 </wgt>
<wgt id='26'> +4.1773034e+02 </wgt>
<wgt id='27'> +3.7489400e+02 </wgt>
<wgt id='28'> +4.7412613e+02 </wgt>
<wgt id='29'> +3.6697325e+02 </wgt>
<wgt id='30'> +4.4484748e+02 </wgt>
<wgt id='31'> +3.9959809e+02 </wgt>
<wgt id='32'> +3.6305525e+02 </wgt>
<wgt id='33'> +4.4484748e+02 </wgt>
<wgt id='34'> +3.5586811e+02 </wgt>
<wgt id='35'> +4.2523324e+02 </wgt>
<wgt id='36'> +3.7758280e+02 </wgt>
<wgt id='37'> +3.4098226e+02 </wgt>
<wgt id='38'> +4.2523324e+02 </wgt>
<wgt id='39'> +3.3417244e+02 </wgt>
<wgt id='40'> +3.9937995e+02 </wgt>
<wgt id='41'> +3.5448998e+02 </wgt>
<wgt id='42'> +3.2007666e+02 </wgt>
<wgt id='43'> +3.9937995e+02 </wgt>
<wgt id='44'> +3.1368167e+02 </wgt>
<wgt id='45'> +5.0481800e+02 </wgt>
<wgt id='46'> +5.0701705e+02 </wgt>
<wgt id='47'> +5.2125636e+02 </wgt>
<wgt id='48'> +5.0656567e+02 </wgt>
<wgt id='49'> +5.0249297e+02 </wgt>
<wgt id='50'> +5.8813363e+02 </wgt>
<wgt id='51'> +4.9485178e+02 </wgt>
<wgt id='52'> +5.0302097e+02 </wgt>
<wgt id='53'> +5.0744975e+02 </wgt>
<wgt id='54'> +5.0838894e+02 </wgt>
<wgt id='55'> +4.5864475e+02 </wgt>
<wgt id='56'> +4.6852824e+02 </wgt>
<wgt id='57'> +4.9534818e+02 </wgt>
<wgt id='58'> +5.0601846e+02 </wgt>
<wgt id='59'> +5.0379223e+02 </wgt>
<wgt id='60'> +4.8988115e+02 </wgt>
<wgt id='61'> +4.8077399e+02 </wgt>
<wgt id='62'> +4.9776952e+02 </wgt>
<wgt id='63'> +5.0540425e+02 </wgt>
<wgt id='64'> +4.9882031e+02 </wgt>
<wgt id='65'> +5.8457562e+02 </wgt>
<wgt id='66'> +4.9360544e+02 </wgt>
<wgt id='67'> +5.0898848e+02 </wgt>
<wgt id='68'> +5.4328434e+02 </wgt>
<wgt id='69'> +4.9400158e+02 </wgt>
<wgt id='70'> +4.9705825e+02 </wgt>
<wgt id='71'> +5.1365708e+02 </wgt>
<wgt id='72'> +4.9144718e+02 </wgt>
<wgt id='73'> +4.9693296e+02 </wgt>
<wgt id='74'> +5.2210571e+02 </wgt>
<wgt id='75'> +5.1534396e+02 </wgt>
<wgt id='76'> +4.9260827e+02 </wgt>
<wgt id='77'> +4.8893995e+02 </wgt>
<wgt id='78'> +5.0032165e+02 </wgt>
<wgt id='79'> +4.8791607e+02 </wgt>
<wgt id='80'> +4.9880104e+02 </wgt>
<wgt id='81'> +4.9585143e+02 </wgt>
<wgt id='82'> +5.1349490e+02 </wgt>
<wgt id='83'> +5.1337582e+02 </wgt>
<wgt id='84'> +5.4991117e+02 </wgt>
<wgt id='85'> +5.2664299e+02 </wgt>
<wgt id='86'> +5.0234264e+02 </wgt>
<wgt id='87'> +5.0563626e+02 </wgt>
<wgt id='88'> +5.1123385e+02 </wgt>
<wgt id='89'> +5.1577715e+02 </wgt>
<wgt id='90'> +5.1198189e+02 </wgt>
<wgt id='91'> +5.3221981e+02 </wgt>
<wgt id='92'> +4.6615658e+02 </wgt>
<wgt id='93'> +4.9755447e+02 </wgt>
<wgt id='94'> +5.0039663e+02 </wgt>
<wgt id='95'> +4.8818303e+02 </wgt>
<wgt id='96'> +5.4248631e+02 </wgt>
<wgt id='97'> +5.0979866e+02 </wgt>
<wgt id='98'> +4.8460317e+02 </wgt>
<wgt id='99'> +4.8852814e+02 </wgt>
<wgt id='100'> +4.9555541e+02 </wgt>
<wgt id='101'> +5.3505295e+02 </wgt>
<wgt id='102'> +4.9623104e+02 </wgt>
<wgt id='103'> +5.4621055e+02 </wgt>
<wgt id='104'> +5.0436034e+02 </wgt>
<wgt id='105'> +5.2407448e+02 </wgt>
<wgt id='106'> +4.6523915e+02 </wgt>
<wgt id='107'> +4.9547362e+02 </wgt>
<wgt id='108'> +4.5233372e+02 </wgt>
<wgt id='109'> +4.7545909e+02 </wgt>
<wgt id='110'> +5.0514103e+02 </wgt>
<wgt id='111'> +4.9198349e+02 </wgt>
<wgt id='112'> +4.8098086e+02 </wgt>
<wgt id='113'> +4.6557731e+02 </wgt>
<wgt id='114'> +5.0132320e+02 </wgt>
<wgt id='115'> +4.9852443e+02 </wgt>
<wgt id='116'> +5.0738582e+02 </wgt>
<wgt id='117'> +5.0817125e+02 </wgt>
<wgt id='118'> +5.1934279e+02 </wgt>
<wgt id='119'> +4.8747272e+02 </wgt>
<wgt id='120'> +4.9871968e+02 </wgt>
<wgt id='121'> +4.9246556e+02 </wgt>
<wgt id='122'> +4.9889544e+02 </wgt>
<wgt id='123'> +5.0983938e+02 </wgt>
<wgt id='124'> +5.4186754e+02 </wgt>
<wgt id='125'> +5.4373108e+02 </wgt>
<wgt id='126'> +5.2238002e+02 </wgt>
<wgt id='127'> +5.1892988e+02 </wgt>
<wgt id='128'> +4.6664405e+02 </wgt>
<wgt id='129'> +5.6889406e+02 </wgt>
<wgt id='130'> +5.0558569e+02 </wgt>
<wgt id='131'> +5.3676998e+02 </wgt>
<wgt id='132'> +5.0707583e+02 </wgt>
<wgt id='133'> +5.0480113e+02 </wgt>
<wgt id='134'> +4.7942935e+02 </wgt>
<wgt id='135'> +5.1632743e+02 </wgt>
<wgt id='136'> +4.9285942e+02 </wgt>
<wgt id='137'> +4.7726504e+02 </wgt>
<wgt id='138'> +4.6191098e+02 </wgt>
<wgt id='139'> +5.1553982e+02 </wgt>
<wgt id='140'> +5.3216186e+02 </wgt>
<wgt id='141'> +5.0538901e+02 </wgt>
<wgt id='142'> +5.0119048e+02 </wgt>
<wgt id='143'> +5.0438874e+02 </wgt>
<wgt id='144'> +5.0321463e+02 </wgt>
<wgt id='145'> +5.0536483e+02 </wgt>
</rwgt>
</event>
<event>
 4      1 +5.0481800e+02 1.88851100e+02 7.54677100e-03 1.15950200e-01
       21 -1    0    0  501  502 +0.0000000000e+00 +0.0000000000e+00 +8.0109111678e+01 8.0109111678e+01 0.0000000000e+00 0.0000e+00 1.0000e+00
       21 -1    0    0  502  503 -0.0000000000e+00 -0.0000000000e+00 -4.7165983642e+02 4.7165983642e+02 0.0000000000e+00 0.0000e+00 -1.0000e+00
        6  1    1    2  501    0 -7.1036794335e+01 +2.6258867777e+01 -2.6111672364e+02 3.2225253707e+02 1.7300000000e+02 0.0000e+00 -1.0000e+00
       -6  1    1    2    0  503 +7.1036794335e+01 -2.6258867777e+01 -1.3043400111e+02 2.2951641103e+02 1.7300000000e+02 0.0000e+00 1.0000e+00
<mgrwt>
<rscale>  2 0.18885114E+03</rscale>
<asrwt>0</asrwt>
<pdfrwt beam="1">  1       21 0.12324479E-01 0.18885114E+03</pdfrwt>
<pdfrwt beam="2">  1       21 0.72563051E-01 0.18885114E+03</pdfrwt>
<totfact> 0.95877924E+04</totfact>
</mgrwt>
<rwgt>
<wgt id='1'> +6.4561272e+02 </wgt>
<wgt id='2'> +6.2657136e+02 </wgt>
<wgt id='3'> +5.0481800e+02 </wgt>
<wgt id='4'> +6.4561272e+02 </wgt>
<wgt id='5'> +4.9982962e+02 </wgt>
<wgt id='6'> +6.2005834e+02 </wgt>
<wgt id='7'> +6.0029249e+02 </wgt>
<wgt id='8'> +4.7574308e+02 </wgt>
<wgt id='9'> +6.2005833e+02 </wgt>
<wgt id='10'> +4.7092077e+02 </wgt>
<wgt id='11'> +5.8434617e+02 </wgt>
<wgt id='12'> +5.6542816e+02 </wgt>
<wgt id='13'> +4.4778818e+02 </wgt>
<wgt id='14'> +5.8434616e+02 </wgt>
<wgt id='15'> +4.4323999e+02 </wgt>
<wgt id='16'> +5.2562300e+02 </wgt>
<wgt id='17'> +5.1227283e+02 </wgt>
<wgt id='18'> +4.2476716e+02 </wgt>
<wgt id='19'> +5.2562300e+02 </wgt>
<wgt id='20'> +4.2091058e+02 </wgt>
<wgt id='21'> +4.9078773e+02 </wgt>
<wgt id='22'> +4.0030276e+02 </wgt>
<wgt id='23'> +5.0481800e+02 </wgt>
<wgt id='24'> +3.9656620e+02 </wgt>
<wgt id='25'> +4.7574308e+02 </wgt>
<wgt id='26'> +4.6228332e+02 </wgt>
<wgt id='27'> +3.7678077e+02 </wgt>
<wgt id='28'> +4.7574308e+02 </wgt>
<wgt id='29'> +3.7325600e+02 </wgt>
<wgt id='30'> +4.4227304e+02 </wgt>
<wgt id='31'> +4.3193404e+02 </wgt>
<wgt id='32'> +3.6239559e+02 </wgt>
<wgt id='33'> +4.4227304e+02 </wgt>
<wgt id='34'> +3.5929323e+02 </wgt>
<wgt id='35'> +4.2476716e+02 </wgt>
<wgt id='36'> +4.1381841e+02 </wgt>
<wgt id='37'> +3.4152347e+02 </wgt>
<wgt id='38'> +4.2476716e+02 </wgt>
<wgt id='39'> +3.3851265e+02 </wgt>
<wgt id='40'> +4.0030276e+02 </wgt>
<wgt id='41'> +3.8978429e+02 </wgt>
<wgt id='42'> +3.2145538e+02 </wgt>
<wgt id='43'> +4.0030276e+02 </wgt>
<wgt id='44'> +3.1861483e+02 </wgt>
<wgt id='45'> +5.0481800e+02 </wgt>
<wgt id='46'> +5.0827239e+02 </wgt>
<wgt id='47'> +5.1956090e+02 </wgt>
<wgt id='48'> +5.0647037e+02 </wgt>
<wgt id='49'> +5.0146732e+02 </wgt>
<wgt id='50'> +5.8553484e+02 </wgt>
<wgt id='51'> +4.9460427e+02 </wgt>
<wgt id='52'> +5.0367518e+02 </wgt>
<wgt id='53'> +5.0516813e+02 </wgt>
<wgt id='54'> +5.0917507e+02 </wgt>
<wgt id='55'> +4.6522183e+02 </wgt>
<wgt id='56'> +4.6844044e+02 </wgt>
<wgt id='57'> +4.9876232e+02 </wgt>
<wgt id='58'> +5.0474436e+02 </wgt>
<wgt id='59'> +5.0857423e+02 </wgt>
<wgt id='60'> +4.9429854e+02 </wgt>
<wgt id='61'> +4.7144273e+02 </wgt>
<wgt id='62'> +4.9724037e+02 </wgt>
<wgt id='63'> +5.0572193e+02 </wgt>
<wgt id='64'> +4.9868293e+02 </wgt>
<wgt id='65'> +5.7495883e+02 </wgt>
<wgt id='66'> +4.9415409e+02 </wgt>
<wgt id='67'> +5.0863739e+02 </wgt>
<wgt id='68'> +5.4494560e+02 </wgt>
<wgt id='69'> +4.9468631e+02 </wgt>
<wgt id='70'> +4.9784622e+02 </wgt>
<wgt id='71'> +5.1278549e+02 </wgt>
<wgt id='72'> +4.9302032e+02 </wgt>
<wgt id='73'> +4.9618105e+02 </wgt>
<wgt id='74'> +5.2356135e+02 </wgt>
<wgt id='75'> +5.1475579e+02 </wgt>
<wgt id='76'> +4.9482640e+02 </wgt>
<wgt id='77'> +4.9078236e+02 </wgt>
<wgt id='78'> +4.9688735e+02 </wgt>
<wgt id='79'> +4.9088320e+02 </wgt>
<wgt id='80'> +4.9739762e+02 </wgt>
<wgt id='81'> +4.9645011e+02 </wgt>
<wgt id='82'> +5.0955376e+02 </wgt>
<wgt id='83'> +5.1135925e+02 </wgt>
<wgt id='84'> +5.4547234e+02 </wgt>
<wgt id='85'> +5.2278152e+02 </wgt>
<wgt id='86'> +5.0272633e+02 </wgt>
<wgt id='87'> +5.0612978e+02 </wgt>
<wgt id='88'> +5.0888300e+02 </wgt>
<wgt id='89'> +5.1454059e+02 </wgt>
<wgt id='90'> +5.1283604e+02 </wgt>
<wgt id='91'> +5.2802249e+02 </wgt>
<wgt id='92'> +4.6848382e+02 </wgt>
<wgt id='93'> +4.9852992e+02 </wgt>
<wgt id='94'> +4.9919915e+02 </wgt>
<wgt id='95'> +4.9187511e+02 </wgt>
<wgt id='96'> +5.3915703e+02 </wgt>
<wgt id='97'> +5.0757808e+02 </wgt>
<wgt id='98'> +4.8693108e+02 </wgt>
<wgt id='99'> +4.8737098e+02 </wgt>
<wgt id='100'> +4.9185339e+02 </wgt>
<wgt id='101'> +5.3811932e+02 </wgt>
<wgt id='102'> +5.0048207e+02 </wgt>
<wgt id='103'> +5.4391354e+02 </wgt>
<wgt id='104'> +5.0443848e+02 </wgt>
<wgt id='105'> +5.2387023e+02 </wgt>
<wgt id='106'> +4.6705483e+02 </wgt>
<wgt id='107'> +4.9390887e+02 </wgt>
<wgt id='108'> +4.5335827e+02 </wgt>
<wgt id='109'> +4.7729741e+02 </wgt>
<wgt id='110'> +5.0479838e+02 </wgt>
<wgt id='111'> +4.9256415e+02 </wgt>
<wgt id='112'> +4.8127281e+02 </wgt>
<wgt id='113'> +4.6806051e+02 </wgt>
<wgt id='114'> +5.0069690e+02 </wgt>
<wgt id='115'> +4.9365034e+02 </wgt>
<wgt id='116'> +5.0925628e+02 </wgt>
<wgt id='117'> +5.0574204e+02 </wgt>
<wgt id='118'> +5.2019877e+02 </wgt>
<wgt id='119'> +4.8989285e+02 </wgt>
<wgt id='120'> +4.9675425e+02 </wgt>
<wgt id='121'> +4.9451844e+02 </wgt>
<wgt id='122'> +4.9957192e+02 </wgt>
<wgt id='123'> +5.0835052e+02 </wgt>
<wgt id='124'> +5.4340990e+02 </wgt>
<wgt id='125'> +5.4611121e+02 </wgt>
<wgt id='126'> +5.2056213e+02 </wgt>
<wgt id='127'> +5.1790436e+02 </wgt>
<wgt id='128'> +4.6548802e+02 </wgt>
<wgt id='129'> +5.6614157e+02 </wgt>
<wgt id='130'> +5.0244008e+02 </wgt>
<wgt id='131'> +5.3329176e+02 </wgt>
<wgt id='132'> +5.1290157e+02 </wgt>
<wgt id='133'> +5.0728277e+02 </wgt>
<wgt id='134'> +4.8325266e+02 </wgt>
<wgt id='135'> +5.1503549e+02 </wgt>
<wgt id='136'> +5.0011755e+02 </wgt>
<wgt id='137'> +4.7865153e+02 </wgt>
<wgt id='138'> +4.6374960e+02 </wgt>
<wgt id='139'> +5.1621036e+02 </wgt>
<wgt id='140'> +5.2875858e+02 </wgt>
<wgt id='141'> +5.0642651e+02 </wgt>
<wgt id='142'> +4.9553103e+02 </wgt>
<wgt id='143'> +5.0738728e+02 </wgt>
<wgt id='144'> +5.0251634e+02 </wgt>
<wgt id='145'> +5.0448187e+02 </wgt>
</rwgt>
</event>
<event>
 4      1 +5.0481800e+02 1.83934300e+02 7.54677100e-03 1.16404900e-01
       21 -1    0    0  503  502 +0.0000000000e+00 +0.0000000000e+00 +1.5945469472e+02 1.5945469472e+02 0.0000000000e+00 0.0000e+00 -1.0000e+00
       21 -1    0    0  501  503 -0.0000000000e+00 -0.0000000000e+00 -2.8591773333e+02 2.8591773333e+02 0.0000000000e+00 0.0000e+00 1.0000e+00
        6  1    1    2  501    0 +1.6424475158e+00 -6.2451088682e+01 -1.7632588389e+02 2.5479924144e+02 1.7300000000e+02 0.0000e+00 1.0000e+00
       -6  1    1    2    0  502 -1.6424475158e+00 +6.2451088682e+01 +4.9862845285e+01 1.9057318660e+02 1.7300000000e+02 0.0000e+00 -1.0000e+00
<mgrwt>
<rscale>  2 0.18393433E+03</rscale>
<asrwt>0</asrwt>
<pdfrwt beam="1">  1       21 0.24531492E-01 0.18393433E+03</pdfrwt>
<pdfrwt beam="2">  1       21 0.43987343E-01 0.18393433E+03</pdfrwt>
<totfact> 0.78244888E+04</totfact>
</mgrwt>
<rwgt>
<wgt id='1'> +6.4757503e+02 </wgt>
<wgt id='2'> +5.9281985e+02 </wgt>
<wgt id='3'> +5.0481800e+02 </wgt>
<wgt id='4'> +6.4757504e+02 </wgt>
<wgt id='5'> +4.7941986e+02 </wgt>
<wgt id='6'> +6.2079557e+02 </wgt>
<wgt id='7'> +5.6410375e+02 </wgt>
<wgt id='8'> +4.7492633e+02 </wgt>
<wgt id='9'> +6.2079557e+02 </wgt>
<wgt id='10'> +4.5069228e+02 </wgt>
<wgt id='11'> +5.8403655e+02 </wgt>
<wgt id='12'> +5.3030191e+02 </wgt>
<wgt id='13'> +4.4630766e+02 </wgt>
<wgt id='14'> +5.8403655e+02 </wgt>
<wgt id='15'> +4.2352135e+02 </wgt>
<wgt id='16'> +5.2659450e+02 </wgt>
<wgt id='17'> +4.8823727e+02 </wgt>
<wgt id='18'> +4.2443529e+02 </wgt>
<wgt id='19'> +5.2659451e+02 </wgt>
<wgt id='20'> +4.0456065e+02 </wgt>
<wgt id='21'> +4.6458713e+02 </wgt>
<wgt id='22'> +3.9930330e+02 </wgt>
<wgt id='23'> +5.0481800e+02 </wgt>
<wgt id='24'> +3.8031875e+02 </wgt>
<wgt id='25'> +4.7492633e+02 </wgt>
<wgt id='26'> +4.3674846e+02 </wgt>
<wgt id='27'> +3.7524161e+02 </wgt>
<wgt id='28'> +4.7492633e+02 </wgt>
<wgt id='29'> +3.5739044e+02 </wgt>
<wgt id='30'> +4.4274429e+02 </wgt>
<wgt id='31'> +4.1272670e+02 </wgt>
<wgt id='32'> +3.6193876e+02 </wgt>
<wgt id='33'> +4.4274429e+02 </wgt>
<wgt id='34'> +3.4591952e+02 </wgt>
<wgt id='35'> +4.2443529e+02 </wgt>
<wgt id='36'> +3.9273428e+02 </wgt>
<wgt id='37'> +3.4050736e+02 </wgt>
<wgt id='38'> +4.2443529e+02 </wgt>
<wgt id='39'> +3.2519149e+02 </wgt>
<wgt id='40'> +3.9930330e+02 </wgt>
<wgt id='41'> +3.6920113e+02 </wgt>
<wgt id='42'> +3.1998866e+02 </wgt>
<wgt id='43'> +3.9930330e+02 </wgt>
<wgt id='44'> +3.0558664e+02 </wgt>
<wgt id='45'> +5.0481800e+02 </wgt>
<wgt id='46'> +5.0337751e+02 </wgt>
<wgt id='47'> +5.2214620e+02 </wgt>
<wgt id='48'> +5.0545759e+02 </wgt>
<wgt id='49'> +5.0412397e+02 </wgt>
<wgt id='50'> +5.8568563e+02 </wgt>
<wgt id='51'> +4.9513500e+02 </wgt>
<wgt id='52'> +5.0163361e+02 </wgt>
<wgt id='53'> +5.1214322e+02 </wgt>
<wgt id='54'> +5.0761209e+02 </wgt>
<wgt id='55'> +4.5051908e+02 </wgt>
<wgt id='56'> +4.7117061e+02 </wgt>
<wgt id='57'> +4.9087841e+02 </wgt>
<wgt id='58'> +5.0976011e+02 </wgt>
<wgt id='59'> +4.9533088e+02 </wgt>
<wgt id='60'> +4.8238890e+02 </wgt>
<wgt id='61'> +4.9548914e+02 </wgt>
<wgt id='62'> +4.9806551e+02 </wgt>
<wgt id='63'> +5.0520709e+02 </wgt>
<wgt id='64'> +5.0149589e+02 </wgt>
<wgt id='65'> +5.9688515e+02 </wgt>
<wgt id='66'> +4.9239495e+02 </wgt>
<wgt id='67'> +5.0940484e+02 </wgt>
<wgt id='68'> +5.3883478e+02 </wgt>
<wgt id='69'> +4.9050302e+02 </wgt>
<wgt id='70'> +4.9655861e+02 </wgt>
<wgt id='71'> +5.1458926e+02 </wgt>
<wgt id='72'> +4.9306309e+02 </wgt>
<wgt id='73'> +4.9905591e+02 </wgt>
<wgt id='74'> +5.1811244e+02 </wgt>
<wgt id='75'> +5.1563673e+02 </wgt>
<wgt id='76'> +4.9007856e+02 </wgt>
<wgt id='77'> +4.8523985e+02 </wgt>
<wgt id='78'> +5.0724303e+02 </wgt>
<wgt id='79'> +4.8288896e+02 </wgt>
<wgt id='80'> +5.0125741e+02 </wgt>
<wgt id='81'> +4.9595737e+02 </wgt>
<wgt id='82'> +5.1985615e+02 </wgt>
<wgt id='83'> +5.1479006e+02 </wgt>
<wgt id='84'> +5.5429042e+02 </wgt>
<wgt id='85'> +5.3194119e+02 </wgt>
<wgt id='86'> +5.0056368e+02 </wgt>
<wgt id='87'> +5.0428331e+02 </wgt>
<wgt id='88'> +5.1335808e+02 </wgt>
<wgt id='89'> +5.1645039e+02 </wgt>
<wgt id='90'> +5.0990935e+02 </wgt>
<wgt id='91'> +5.3823235e+02 </wgt>
<wgt id='92'> +4.6661049e+02 </wgt>
<wgt id='93'> +4.9523338e+02 </wgt>
<wgt id='94'> +5.0336884e+02 </wgt>
<wgt id='95'> +4.8428572e+02 </wgt>
<wgt id='96'> +5.4410933e+02 </wgt>
<wgt id='97'> +5.1383727e+02 </wgt>
<wgt id='98'> +4.8077024e+02 </wgt>
<wgt id='99'> +4.9103294e+02 </wgt>
<wgt id='100'> +5.0397864e+02 </wgt>
<wgt id='101'> +5.2690488e+02 </wgt>
<wgt id='102'> +4.8713378e+02 </wgt>
<wgt id='103'> +5.4749138e+02 </wgt>
<wgt id='104'> +5.0312001e+02 </wgt>
<wgt id='105'> +5.2581965e+02 </wgt>
<wgt id='106'> +4.6640565e+02 </wgt>
<wgt id='107'> +5.0125345e+02 </wgt>
<wgt id='108'> +4.5443241e+02 </wgt>
<wgt id='109'> +4.7543321e+02 </wgt>
<wgt id='110'> +5.0639487e+02 </wgt>
<wgt id='111'> +4.9236408e+02 </wgt>
<wgt id='112'> +4.8299194e+02 </wgt>
<wgt id='113'> +4.6418187e+02 </wgt>
<wgt id='114'> +5.0606677e+02 </wgt>
<wgt id='115'> +5.0890513e+02 </wgt>
<wgt id='116'> +5.0192723e+02 </wgt>
<wgt id='117'> +5.1278041e+02 </wgt>
<wgt id='118'> +5.1547491e+02 </wgt>
<wgt id='119'> +4.8556661e+02 </wgt>
<wgt id='120'> +5.0471556e+02 </wgt>
<wgt id='121'> +4.9114949e+02 </wgt>
<wgt id='122'> +4.9847468e+02 </wgt>
<wgt id='123'> +5.1097538e+02 </wgt>
<wgt id='124'> +5.3624609e+02 </wgt>
<wgt id='125'> +5.3757203e+02 </wgt>
<wgt id='126'> +5.2362420e+02 </wgt>
<wgt id='127'> +5.1921510e+02 </wgt>
<wgt id='128'> +4.7011991e+02 </wgt>
<wgt id='129'> +5.7132673e+02 </wgt>
<wgt id='130'> +5.0866888e+02 </wgt>
<wgt id='131'> +5.4143196e+02 </wgt>
<wgt id='132'> +4.9702042e+02 </wgt>
<wgt id='133'> +4.9939507e+02 </wgt>
<wgt id='134'> +4.7388977e+02 </wgt>
<wgt id='135'> +5.1808956e+02 </wgt>
<wgt id='136'> +4.8172605e+02 </wgt>
<wgt id='137'> +4.7445651e+02 </wgt>
<wgt id='138'> +4.5682508e+02 </wgt>
<wgt id='139'> +5.1366438e+02 </wgt>
<wgt id='140'> +5.3815047e+02 </wgt>
<wgt id='141'> +5.0329598e+02 </wgt>
<wgt id='142'> +5.1107096e+02 </wgt>
<wgt id='143'> +4.9912566e+02 </wgt>
<wgt id='144'> +5.0570777e+02 </wgt>
<wgt id='145'> +5.0603425e+02 </wgt>
</rwgt>
</event>
<event>
 4      1 +5.0481800e+02 2.23447900e+02 7.54677100e-03 1.13133800e-01
       21 -1    0    0  503  502 +0.0000000000e+00 +0.0000000000e+00 +1.7015516133e+03 1.7015516133e+03 0.0000000000e+00 0.0000e+00 -1.0000e+00
       21 -1    0    0  501  503 -0.0000000000e+00 -0.0000000000e+00 -2.9684129193e+01 2.9684129193e+01 0.0000000000e+00 0.0000e+00 1.0000e+00
        6  1    1    2  501    0 -8.7720895635e+01 +1.1092799571e+02 +7.4316669488e+02 7.7603203036e+02 1.7300000000e+02 0.0000e+00 -1.0000e+00
       -6  1    1    2    0  502 +8.7720895635e+01 -1.1092799571e+02 +9.2870078920e+02 9.5520371211e+02 1.7300000000e+02 0.0000e+00 1.0000e+00
<mgrwt>
<rscale>  2 0.22344793E+03</rscale>
<asrwt>0</asrwt>
<pdfrwt beam="1">  1       21 0.26177710E+00 0.22344793E+03</pdfrwt>
<pdfrwt beam="2">  1       21 0.45667904E-02 0.22344793E+03</pdfrwt>
<totfact> 0.17319625E+04</totfact>
</mgrwt>
<rwgt>
<wgt id='1'> +6.9037810e+02 </wgt>
<wgt id='2'> +6.1318100e+02 </wgt>
<wgt id='3'> +5.0481800e+02 </wgt>
<wgt id='4'> +6.9037811e+02 </wgt>
<wgt id='5'> +5.0354829e+02 </wgt>
<wgt id='6'> +6.1447492e+02 </wgt>
<wgt id='7'> +5.4283976e+02 </wgt>
<wgt id='8'> +4.4612632e+02 </wgt>
<wgt id='9'> +6.1447492e+02 </wgt>
<wgt id='10'> +4.4502768e+02 </wgt>
<wgt id='11'> +5.4303418e+02 </wgt>
<wgt id='12'> +4.8067052e+02 </wgt>
<wgt id='13'> +3.9636367e+02 </wgt>
<wgt id='14'> +5.4303418e+02 </wgt>
<wgt id='15'> +3.9540526e+02 </wgt>
<wgt id='16'> +5.6717578e+02 </wgt>
<wgt id='17'> +5.1050317e+02 </wgt>
<wgt id='18'> +4.2635547e+02 </wgt>
<wgt id='19'> +5.6717579e+02 </wgt>
<wgt id='20'> +4.2532941e+02 </wgt>
<wgt id='21'> +4.5194064e+02 </wgt>
<wgt id='22'> +3.7678608e+02 </wgt>
<wgt id='23'> +5.0481800e+02 </wgt>
<wgt id='24'> +3.7589912e+02 </wgt>
<wgt id='25'> +4.4612631e+02 </wgt>
<wgt id='26'> +4.0018171e+02 </wgt>
<wgt id='27'> +3.3475791e+02 </wgt>
<wgt id='28'> +4.4612632e+02 </wgt>
<wgt id='29'> +3.3398483e+02 </wgt>
<wgt id='30'> +4.7902114e+02 </wgt>
<wgt id='31'> +4.3335811e+02 </wgt>
<wgt id='32'> +3.6484546e+02 </wgt>
<wgt id='33'> +4.7902115e+02 </wgt>
<wgt id='34'> +3.6400408e+02 </wgt>
<wgt id='35'> +4.2635547e+02 </wgt>
<wgt id='36'> +3.8364530e+02 </wgt>
<wgt id='37'> +3.2242741e+02 </wgt>
<wgt id='38'> +4.2635547e+02 </wgt>
<wgt id='39'> +3.2170081e+02 </wgt>
<wgt id='40'> +3.7678607e+02 </wgt>
<wgt id='41'> +3.3970795e+02 </wgt>
<wgt id='42'> +2.8646262e+02 </wgt>
<wgt id='43'> +3.7678608e+02 </wgt>
<wgt id='44'> +2.8582985e+02 </wgt>
<wgt id='45'> +5.0481800e+02 </wgt>
<wgt id='46'> +5.1339532e+02 </wgt>
<wgt id='47'> +5.5666122e+02 </wgt>
<wgt id='48'> +5.0395797e+02 </wgt>
<wgt id='49'> +4.4866112e+02 </wgt>
<wgt id='50'> +5.8785028e+02 </wgt>
<wgt id='51'> +4.7211954e+02 </wgt>
<wgt id='52'> +4.3352649e+02 </wgt>
<wgt id='53'> +5.3433106e+02 </wgt>
<wgt id='54'> +5.4045574e+02 </wgt>
<wgt id='55'> +6.1517492e+02 </wgt>
<wgt id='56'> +4.9510901e+02 </wgt>
<wgt id='57'> +5.4544788e+02 </wgt>
<wgt id='58'> +4.3569584e+02 </wgt>
<wgt id='59'> +5.4752900e+02 </wgt>
<wgt id='60'> +4.9186527e+02 </wgt>
<wgt id='61'> +4.0407054e+02 </wgt>
<wgt id='62'> +4.4236358e+02 </wgt>
<wgt id='63'> +5.4059140e+02 </wgt>
<wgt id='64'> +5.0856026e+02 </wgt>
<wgt id='65'> +4.0691378e+02 </wgt>
<wgt id='66'> +5.2229900e+02 </wgt>
<wgt id='67'> +5.0562326e+02 </wgt>
<wgt id='68'> +6.8284009e+02 </wgt>
<wgt id='69'> +5.8605419e+02 </wgt>
<wgt id='70'> +6.1051187e+02 </wgt>
<wgt id='71'> +4.4094272e+02 </wgt>
<wgt id='72'> +4.3169534e+02 </wgt>
<wgt id='73'> +4.4481432e+02 </wgt>
<wgt id='74'> +6.3046676e+02 </wgt>
<wgt id='75'> +6.0170965e+02 </wgt>
<wgt id='76'> +5.2045244e+02 </wgt>
<wgt id='77'> +4.5077906e+02 </wgt>
<wgt id='78'> +4.1341181e+02 </wgt>
<wgt id='79'> +5.7173514e+02 </wgt>
<wgt id='80'> +4.1183345e+02 </wgt>
<wgt id='81'> +5.5013930e+02 </wgt>
<wgt id='82'> +5.0366040e+02 </wgt>
<wgt id='83'> +4.9998606e+02 </wgt>
<wgt id='84'> +4.6027645e+02 </wgt>
<wgt id='85'> +4.2650245e+02 </wgt>
<wgt id='86'> +5.5399922e+02 </wgt>
<wgt id='87'> +4.8274708e+02 </wgt>
<wgt id='88'> +5.0942433e+02 </wgt>
<wgt id='89'> +3.5864911e+02 </wgt>
<wgt id='90'> +4.2856855e+02 </wgt>
<wgt id='91'> +3.9472823e+02 </wgt>
<wgt id='92'> +4.7867362e+02 </wgt>
<wgt id='93'> +5.2193247e+02 </wgt>
<wgt id='94'> +4.4947276e+02 </wgt>
<wgt id='95'> +5.2937659e+02 </wgt>
<wgt id='96'> +5.2180018e+02 </wgt>
<wgt id='97'> +4.3241096e+02 </wgt>
<wgt id='98'> +5.9181333e+02 </wgt>
<wgt id='99'> +3.9154092e+02 </wgt>
<wgt id='100'> +3.4118622e+02 </wgt>
<wgt id='101'> +6.0077185e+02 </wgt>
<wgt id='102'> +5.8802878e+02 </wgt>
<wgt id='103'> +4.4051716e+02 </wgt>
<wgt id='104'> +5.6279273e+02 </wgt>
<wgt id='105'> +5.1396028e+02 </wgt>
<wgt id='106'> +5.1302740e+02 </wgt>
<wgt id='107'> +5.1331008e+02 </wgt>
<wgt id='108'> +4.7821150e+02 </wgt>
<wgt id='109'> +5.0676597e+02 </wgt>
<wgt id='110'> +4.2804169e+02 </wgt>
<wgt id='111'> +4.8009168e+02 </wgt>
<wgt id='112'> +5.3434510e+02 </wgt>
<wgt id='113'> +5.9148994e+02 </wgt>
<wgt id='114'> +5.1534245e+02 </wgt>
<wgt id='115'> +4.7225290e+02 </wgt>
<wgt id='116'> +5.7255217e+02 </wgt>
<wgt id='117'> +5.0658241e+02 </wgt>
<wgt id='118'> +5.0439903e+02 </wgt>
<wgt id='119'> +5.7092196e+02 </wgt>
<wgt id='120'> +5.0078713e+02 </wgt>
<wgt id='121'> +4.7404192e+02 </wgt>
<wgt id='122'> +4.8266698e+02 </wgt>
<wgt id='123'> +4.5699105e+02 </wgt>
<wgt id='124'> +5.6428130e+02 </wgt>
<wgt id='125'> +6.9338574e+02 </wgt>
<wgt id='126'> +4.8076994e+02 </wgt>
<wgt id='127'> +4.5911357e+02 </wgt>
<wgt id='128'> +5.0569990e+02 </wgt>
<wgt id='129'> +4.8238132e+02 </wgt>
<wgt id='130'> +5.1660316e+02 </wgt>
<wgt id='131'> +4.3300307e+02 </wgt>
<wgt id='132'> +5.4275650e+02 </wgt>
<wgt id='133'> +5.6279299e+02 </wgt>
<wgt id='134'> +5.5641367e+02 </wgt>
<wgt id='135'> +4.7004529e+02 </wgt>
<wgt id='136'> +6.1895190e+02 </wgt>
<wgt id='137'> +5.8117817e+02 </wgt>
<wgt id='138'> +5.4649007e+02 </wgt>
<wgt id='139'> +5.2322923e+02 </wgt>
<wgt id='140'> +4.8520081e+02 </wgt>
<wgt id='141'> +6.3380889e+02 </wgt>
<wgt id='142'> +2.7082469e+02 </wgt>
<wgt id='143'> +5.1113040e+02 </wgt>
<wgt id='144'> +4.3786941e+02 </wgt>
<wgt id='145'> +4.5206388e+02 </wgt>
</rwgt>
</event>
<event>
 4      1 +5.0481800e+02 3.49390500e+02 7.54677100e-03 1.06286500e-01
       21 -1    0    0  503  502 +0.0000000000e+00 +0.0000000000e+00 +1.4676775593e+03 1.4676775593e+03 0.0000000000e+00 0.0000e+00 -1.0000e+00
       21 -1    0    0  501  503 -0.0000000000e+00 -0.0000000000e+00 -1.1762160130e+02 1.1762160130e+02 0.0000000000e+00 0.0000e+00 1.0000e+00
        6  1    1    2  501    0 -1.2068806293e+02 +2.7853025330e+02 +2.4607225192e+02 4.2734677219e+02 1.7300000000e+02 0.0000e+00 -1.0000e+00
       -6  1    1    2    0  502 +1.2068806293e+02 -2.7853025330e+02 +1.1039837060e+03 1.1579523884e+03 1.7300000000e+02 0.0000e+00 -1.0000e+00
<mgrwt>
<rscale>  2 0.34939048E+03</rscale>
<asrwt>0</asrwt>
<pdfrwt beam="1">  1       21 0.22579654E+00 0.34939048E+03</pdfrwt>
<pdfrwt beam="2">  1       21 0.18095632E-01 0.34939048E+03</pdfrwt>
<totfact> 0.22787951E+03</totfact>
</mgrwt>
<rwgt>
<wgt id='1'> +6.9414485e+02 </wgt>
<wgt id='2'> +5.2536497e+02 </wgt>
<wgt id='3'> +5.0481800e+02 </wgt>
<wgt id='4'> +6.9414485e+02 </wgt>
<wgt id='5'> +4.6775521e+02 </wgt>
<wgt id='6'> +6.0141881e+02 </wgt>
<wgt id='7'> +4.5753887e+02 </wgt>
<wgt id='8'> +4.4004258e+02 </wgt>
<wgt id='9'> +6.0141881e+02 </wgt>
<wgt id='10'> +4.0844387e+02 </wgt>
<wgt id='11'> +5.2424812e+02 </wgt>
<wgt id='12'> +4.0123035e+02 </wgt>
<wgt id='13'> +3.8622460e+02 </wgt>
<wgt id='14'> +5.2424811e+02 </wgt>
<wgt id='15'> +3.5909381e+02 </wgt>
<wgt id='16'> +5.8265024e+02 </wgt>
<wgt id='17'> +4.4683151e+02 </wgt>
<wgt id='18'> +4.3007871e+02 </wgt>
<wgt id='19'> +5.8265024e+02 </wgt>
<wgt id='20'> +3.9975917e+02 </wgt>
<wgt id='21'> +3.8914431e+02 </wgt>
<wgt id='22'> +3.7489342e+02 </wgt>
<wgt id='23'> +5.0481800e+02 </wgt>
<wgt id='24'> +3.4906972e+02 </wgt>
<wgt id='25'> +4.4004258e+02 </wgt>
<wgt id='26'> +3.4125298e+02 </wgt>
<wgt id='27'> +3.2904329e+02 </wgt>
<wgt id='28'> +4.4004258e+02 </wgt>
<wgt id='29'> +3.0689352e+02 </wgt>
<wgt id='30'> +4.9638773e+02 </wgt>
<wgt id='31'> +3.8467743e+02 </wgt>
<wgt id='32'> +3.7078573e+02 </wgt>
<wgt id='33'> +4.9638773e+02 </wgt>
<wgt id='34'> +3.4557833e+02 </wgt>
<wgt id='35'> +4.3007871e+02 </wgt>
<wgt id='36'> +3.3501449e+02 </wgt>
<wgt id='37'> +3.2320859e+02 </wgt>
<wgt id='38'> +4.3007871e+02 </wgt>
<wgt id='39'> +3.0175901e+02 </wgt>
<wgt id='40'> +3.7489342e+02 </wgt>
<wgt id='41'> +2.9378483e+02 </wgt>
<wgt id='42'> +2.8367961e+02 </wgt>
<wgt id='43'> +3.7489342e+02 </wgt>
<wgt id='44'> +2.6529910e+02 </wgt>
<wgt id='45'> +5.0481800e+02 </wgt>
<wgt id='46'> +5.1868965e+02 </wgt>
<wgt id='47'> +5.4574158e+02 </wgt>
<wgt id='48'> +5.0665247e+02 </wgt>
<wgt id='49'> +4.5690840e+02 </wgt>
<wgt id='50'> +6.1268506e+02 </wgt>
<wgt id='51'> +4.7297158e+02 </wgt>
<wgt id='52'> +4.5243883e+02 </wgt>
<wgt id='53'> +5.2146903e+02 </wgt>
<wgt id='54'> +5.3820619e+02 </wgt>
<wgt id='55'> +5.7507633e+02 </wgt>
<wgt id='56'> +4.8190179e+02 </wgt>
<wgt id='57'> +5.3587414e+02 </wgt>
<wgt id='58'> +4.4286324e+02 </wgt>
<wgt id='59'> +5.4524909e+02 </wgt>
<wgt id='60'> +4.9149612e+02 </wgt>
<wgt id='61'> +4.1986506e+02 </wgt>
<wgt id='62'> +4.5463877e+02 </wgt>
<wgt id='63'> +5.3576152e+02 </wgt>
<wgt id='64'> +5.0234002e+02 </wgt>
<wgt id='65'> +4.5219389e+02 </wgt>
<wgt id='66'> +5.1723067e+02 </wgt>
<wgt id='67'> +5.0849572e+02 </wgt>
<wgt id='68'> +6.5104279e+02 </wgt>
<wgt id='69'> +5.7311806e+02 </wgt>
<wgt id='70'> +5.7229184e+02 </wgt>
<wgt id='71'> +4.5821391e+02 </wgt>
<wgt id='72'> +4.3787084e+02 </wgt>
<wgt id='73'> +4.4750449e+02 </wgt>
<wgt id='74'> +6.0685737e+02 </wgt>
<wgt id='75'> +5.7655307e+02 </wgt>
<wgt id='76'> +5.1613084e+02 </wgt>
<wgt id='77'> +4.6284515e+02 </wgt>
<wgt id='78'> +4.2461265e+02 </wgt>
<wgt id='79'> +5.5151856e+02 </wgt>
<wgt id='80'> +4.3068455e+02 </wgt>
<wgt id='81'> +5.3290760e+02 </wgt>
<wgt id='82'> +5.0285764e+02 </wgt>
<wgt id='83'> +5.0612277e+02 </wgt>
<wgt id='84'> +4.8942394e+02 </wgt>
<wgt id='85'> +4.4632170e+02 </wgt>
<wgt id='86'> +5.4414673e+02 </wgt>
<wgt id='87'> +4.9090674e+02 </wgt>
<wgt id='88'> +5.0677695e+02 </wgt>
<wgt id='89'> +3.9781974e+02 </wgt>
<wgt id='90'> +4.5026722e+02 </wgt>
<wgt id='91'> +4.2331128e+02 </wgt>
<wgt id='92'> +4.6370791e+02 </wgt>
<wgt id='93'> +5.1525168e+02 </wgt>
<wgt id='94'> +4.5486438e+02 </wgt>
<wgt id='95'> +5.2310744e+02 </wgt>
<wgt id='96'> +5.3787590e+02 </wgt>
<wgt id='97'> +4.4659098e+02 </wgt>
<wgt id='98'> +5.6408098e+02 </wgt>
<wgt id='99'> +4.0620682e+02 </wgt>
<wgt id='100'> +3.6194027e+02 </wgt>
<wgt id='101'> +6.0092175e+02 </wgt>
<wgt id='102'> +5.7982293e+02 </wgt>
<wgt id='103'> +4.6811888e+02 </wgt>
<wgt id='104'> +5.5665221e+02 </wgt>
<wgt id='105'> +5.1341391e+02 </wgt>
<wgt id='106'> +4.8956865e+02 </wgt>
<wgt id='107'> +4.9386158e+02 </wgt>
<wgt id='108'> +4.6648231e+02 </wgt>
<wgt id='109'> +4.9459727e+02 </wgt>
<wgt id='110'> +4.4448048e+02 </wgt>
<wgt id='111'> +4.8300122e+02 </wgt>
<wgt id='112'> +5.2550584e+02 </wgt>
<wgt id='113'> +5.4882138e+02 </wgt>
<wgt id='114'> +5.1625218e+02 </wgt>
<wgt id='115'> +4.6979985e+02 </wgt>
<wgt id='116'> +5.6849288e+02 </wgt>
<wgt id='117'> +5.0153165e+02 </wgt>
<wgt id='118'> +5.1727258e+02 </wgt>
<wgt id='119'> +5.5665635e+02 </wgt>
<wgt id='120'> +5.0382592e+02 </wgt>
<wgt id='121'> +4.8019091e+02 </wgt>
<wgt id='122'> +4.8658775e+02 </wgt>
<wgt id='123'> +4.7446858e+02 </wgt>
<wgt id='124'> +5.7445662e+02 </wgt>
<wgt id='125'> +6.6832550e+02 </wgt>
<wgt id='126'> +4.9257002e+02 </wgt>
<wgt id='127'> +4.7450407e+02 </wgt>
<wgt id='128'> +4.9512715e+02 </wgt>
<wgt id='129'> +5.0666657e+02 </wgt>
<wgt id='130'> +5.1963666e+02 </wgt>
<wgt id='131'> +4.5290007e+02 </wgt>
<wgt id='132'> +5.4351430e+02 </wgt>
<wgt id='133'> +5.5769570e+02 </wgt>
<wgt id='134'> +5.3686403e+02 </wgt>
<wgt id='135'> +4.7766336e+02 </wgt>
<wgt id='136'> +5.9926371e+02 </wgt>
<wgt id='137'> +5.5411472e+02 </wgt>
<wgt id='138'> +5.3527135e+02 </wgt>
<wgt id='139'> +5.2197397e+02 </wgt>
<wgt id='140'> +4.9115850e+02 </wgt>
<wgt id='141'> +6.0363443e+02 </wgt>
<wgt id='142'> +3.1704711e+02 </wgt>
<wgt id='143'> +5.1174291e+02 </wgt>
<wgt id='144'> +4.4537710e+02 </wgt>
<wgt id='145'> +4.6037043e+02 </wgt>
</rwgt>
</event>
<event>
 4      1 +5.0481800e+02 2.02040000e+02 7.54677100e-03 1.14802900e-01
       21 -1    0    0  501  502 +0.0000000000e+00 +0.0000000000e+00 +2.7701286024e+02 2.7701286024e+02 0.0000000000e+00 0.0000e+00 -1.0000e+00
       21 -1    0    0  502  503 -0.0000000000e+00 -0.0000000000e+00 -1.7989034399e+02 1.7989034399e+02 0.0000000000e+00 0.0000e+00 -1.0000e+00
        6  1    1    2  501    0 -6.5608377873e+01 -8.1158489015e+01 +1.4571188019e+02 2.4910261262e+02 1.7300000000e+02 0.0000e+00 1.0000e+00
       -6  1    1    2    0  503 +6.5608377873e+01 +8.1158489015e+01 -4.8589363936e+01 2.0780059161e+02 1.7300000000e+02 0.0000e+00 1.0000e+00
<mgrwt>
<rscale>  2 0.20204000E+03</rscale>
<asrwt>0</asrwt>
<pdfrwt beam="1">  1       21 0.42617363E-01 0.20204000E+03</pdfrwt>
<pdfrwt beam="2">  1       21 0.27675437E-01 0.20204000E+03</pdfrwt>
<totfact> 0.65719628E+04</totfact>
</mgrwt>
<rwgt>
<wgt id='1'> +6.4823396e+02 </wgt>
<wgt id='2'> +5.4019769e+02 </wgt>
<wgt id='3'> +5.0481800e+02 </wgt>
<wgt id='4'> +6.4823397e+02 </wgt>
<wgt id='5'> +4.8759713e+02 </wgt>
<wgt id='6'> +6.1795072e+02 </wgt>
<wgt id='7'> +5.0752504e+02 </wgt>
<wgt id='8'> +4.7333854e+02 </wgt>
<wgt id='9'> +6.1795073e+02 </wgt>
<wgt id='10'> +4.5719237e+02 </wgt>
<wgt id='11'> +5.7941653e+02 </wgt>
<wgt id='12'> +4.7579546e+02 </wgt>
<wgt id='13'> +4.4374968e+02 </wgt>
<wgt id='14'> +5.7941653e+02 </wgt>
<wgt id='15'> +4.2862493e+02 </wgt>
<wgt id='16'> +5.2955707e+02 </wgt>
<wgt id='17'> +4.5267143e+02 </wgt>
<wgt id='18'> +4.2551334e+02 </wgt>
<wgt id='19'> +5.2955707e+02 </wgt>
<wgt id='20'> +4.1180367e+02 </wgt>
<wgt id='21'> +4.2529261e+02 </wgt>
<wgt id='22'> +3.9897916e+02 </wgt>
<wgt id='23'> +5.0481800e+02 </wgt>
<wgt id='24'> +3.8612511e+02 </wgt>
<wgt id='25'> +4.7333854e+02 </wgt>
<wgt id='26'> +3.9870406e+02 </wgt>
<wgt id='27'> +3.7403858e+02 </wgt>
<wgt id='28'> +4.7333854e+02 </wgt>
<wgt id='29'> +3.6199827e+02 </wgt>
<wgt id='30'> +4.4636601e+02 </wgt>
<wgt id='31'> +3.8531493e+02 </wgt>
<wgt id='32'> +3.6347581e+02 </wgt>
<wgt id='33'> +4.4636601e+02 </wgt>
<wgt id='34'> +3.5238706e+02 </wgt>
<wgt id='35'> +4.2551334e+02 </wgt>
<wgt id='36'> +3.6201001e+02 </wgt>
<wgt id='37'> +3.4081017e+02 </wgt>
<wgt id='38'> +4.2551334e+02 </wgt>
<wgt id='39'> +3.3041350e+02 </wgt>
<wgt id='40'> +3.9897916e+02 </wgt>
<wgt id='41'> +3.3937778e+02 </wgt>
<wgt id='42'> +3.1950579e+02 </wgt>
<wgt id='43'> +3.9897916e+02 </wgt>
<wgt id='44'> +3.0976778e+02 </wgt>
<wgt id='45'> +5.0481800e+02 </wgt>
<wgt id='46'> +5.0438779e+02 </wgt>
<wgt id='47'> +5.2299020e+02 </wgt>
<wgt id='48'> +5.0621192e+02 </wgt>
<wgt id='49'> +5.0403348e+02 </wgt>
<wgt id='50'> +5.8882868e+02 </wgt>
<wgt id='51'> +4.9514975e+02 </wgt>
<wgt id='52'> +5.0167418e+02 </wgt>
<wgt id='53'> +5.1157971e+02 </wgt>
<wgt id='54'> +5.0764022e+02 </wgt>
<wgt id='55'> +4.4994085e+02 </wgt>
<wgt id='56'> +4.7017100e+02 </wgt>
<wgt id='57'> +4.9056521e+02 </wgt>
<wgt id='58'> +5.0863923e+02 </wgt>
<wgt id='59'> +4.9599065e+02 </wgt>
<wgt id='60'> +4.8298702e+02 </wgt>
<wgt id='61'> +4.9393248e+02 </wgt>
<wgt id='62'> +4.9830855e+02 </wgt>
<wgt id='63'> +5.0526616e+02 </wgt>
<wgt id='64'> +5.0059519e+02 </wgt>
<wgt id='65'> +5.9735024e+02 </wgt>
<wgt id='66'> +4.9272606e+02 </wgt>
<wgt id='67'> +5.0942480e+02 </wgt>
<wgt id='68'> +5.4000207e+02 </wgt>
<wgt id='69'> +4.9210975e+02 </wgt>
<wgt id='70'> +4.9637024e+02 </wgt>
<wgt id='71'> +5.1444889e+02 </wgt>
<wgt id='72'> +4.9067148e+02 </wgt>
<wgt id='73'> +4.9845178e+02 </wgt>
<wgt id='74'> +5.1923538e+02 </wgt>
<wgt id='75'> +5.1611702e+02 </wgt>
<wgt id='76'> +4.8962874e+02 </wgt>
<wgt id='77'> +4.8574643e+02 </wgt>
<wgt id='78'> +5.0623421e+02 </wgt>
<wgt id='79'> +4.8345791e+02 </wgt>
<wgt id='80'> +5.0087285e+02 </wgt>
<wgt id='81'> +4.9552953e+02 </wgt>
<wgt id='82'> +5.1944154e+02 </wgt>
<wgt id='83'> +5.1559706e+02 </wgt>
<wgt id='84'> +5.5520354e+02 </wgt>
<wgt id='85'> +5.3212642e+02 </wgt>
<wgt id='86'> +5.0134741e+02 </wgt>
<wgt id='87'> +5.0461046e+02 </wgt>
<wgt id='88'> +5.1397897e+02 </wgt>
<wgt id='89'> +5.1679104e+02 </wgt>
<wgt id='90'> +5.1003373e+02 </wgt>
<wgt id='91'> +5.3805779e+02 </wgt>
<wgt id='92'> +4.6433557e+02 </wgt>
<wgt id='93'> +4.9583334e+02 </wgt>
<wgt id='94'> +5.0253805e+02 </wgt>
<wgt id='95'> +4.8352001e+02 </wgt>
<wgt id='96'> +5.4584812e+02 </wgt>
<wgt id='97'> +5.1324190e+02 </wgt>
<wgt id='98'> +4.8097100e+02 </wgt>
<wgt id='99'> +4.9052830e+02 </wgt>
<wgt id='100'> +5.0211477e+02 </wgt>
<wgt id='101'> +5.2884299e+02 </wgt>
<wgt id='102'> +4.8886389e+02 </wgt>
<wgt id='103'> +5.4830630e+02 </wgt>
<wgt id='104'> +5.0388787e+02 </wgt>
<wgt id='105'> +5.2488205e+02 </wgt>
<wgt id='106'> +4.6453072e+02 </wgt>
<wgt id='107'> +4.9946325e+02 </wgt>
<wgt id='108'> +4.5280924e+02 </wgt>
<wgt id='109'> +4.7426503e+02 </wgt>
<wgt id='110'> +5.0587048e+02 </wgt>
<wgt id='111'> +4.9167980e+02 </wgt>
<wgt id='112'> +4.8218243e+02 </wgt>
<wgt id='113'> +4.6331662e+02 </wgt>
<wgt id='114'> +5.0434593e+02 </wgt>
<wgt id='115'> +5.0762664e+02 </wgt>
<wgt id='116'> +5.0356571e+02 </wgt>
<wgt id='117'> +5.1237029e+02 </wgt>
<wgt id='118'> +5.1687772e+02 </wgt>
<wgt id='119'> +4.8492877e+02 </wgt>
<wgt id='120'> +5.0409553e+02 </wgt>
<wgt id='121'> +4.9033140e+02 </wgt>
<wgt id='122'> +4.9819820e+02 </wgt>
<wgt id='123'> +5.1158396e+02 </wgt>
<wgt id='124'> +5.3794425e+02 </wgt>
<wgt id='125'> +5.3912822e+02 </wgt>
<wgt id='126'> +5.2448046e+02 </wgt>
<wgt id='127'> +5.1976497e+02 </wgt>
<wgt id='128'> +4.6952621e+02 </wgt>
<wgt id='129'> +5.7175180e+02 </wgt>
<wgt id='130'> +5.0938732e+02 </wgt>
<wgt id='131'> +5.4136506e+02 </wgt>
<wgt id='132'> +4.9755961e+02 </wgt>
<wgt id='133'> +5.0049131e+02 </wgt>
<wgt id='134'> +4.7393962e+02 </wgt>
<wgt id='135'> +5.1801510e+02 </wgt>
<wgt id='136'> +4.8207260e+02 </wgt>
<wgt id='137'> +4.7510955e+02 </wgt>
<wgt id='138'> +4.5854517e+02 </wgt>
<wgt id='139'> +5.1413838e+02 </wgt>
<wgt id='140'> +5.3758006e+02 </wgt>
<wgt id='141'> +5.0379186e+02 </wgt>
<wgt id='142'> +5.0976529e+02 </wgt>
<wgt id='143'> +4.9942307e+02 </wgt>
<wgt id='144'> +5.0471824e+02 </wgt>
<wgt id='145'> +5.0603310e+02 </wgt>
</rwgt>
</event>
<event>
 4      1 +5.0481800e+02 2.26221700e+02 7.54677100e-03 1.12932800e-01
       21 -1    0    0  501  502 +0.0000000000e+00 +0.0000000000e+00 +3.1849454221e+02 3.1849454221e+02 0.0000000000e+00 0.0000e+00 1.0000e+00
       21 -1    0    0  502  503 -0.0000000000e+00 -0.0000000000e+00 -4.1199537090e+02 4.1199537090e+02 0.0000000000e+00 0.0000e+00 -1.0000e+00
        6  1    1    2  501    0 +5.9104452434e+01 -1.3324390350e+02 +2.3851297377e+02 3.2873197711e+02 1.7300000000e+02 0.0000e+00 1.0000e+00
       -6  1    1    2    0  503 -5.9104452434e+01 +1.3324390350e+02 -3.3201380246e+02 4.0175793600e+02 1.7300000000e+02 0.0000e+00 -1.0000e+00
<mgrwt>
<rscale>  2 0.22622174E+03</rscale>
<asrwt>0</asrwt>
<pdfrwt beam="1">  1       21 0.48999160E-01 0.22622174E+03</pdfrwt>
<pdfrwt beam="2">  1       21 0.63383903E-01 0.22622174E+03</pdfrwt>
<totfact> 0.89447659E+03</totfact>
</mgrwt>
<rwgt>
<wgt id='1'> +6.7005698e+02 </wgt>
<wgt id='2'> +5.7080564e+02 </wgt>
<wgt id='3'> +5.0481800e+02 </wgt>
<wgt id='4'> +6.7005699e+02 </wgt>
<wgt id='5'> +4.2091885e+02 </wgt>
<wgt id='6'> +6.1406059e+02 </wgt>
<wgt id='7'> +5.1866741e+02 </wgt>
<wgt id='8'> +4.5852009e+02 </wgt>
<wgt id='9'> +6.1406060e+02 </wgt>
<wgt id='10'> +3.8308820e+02 </wgt>
<wgt id='11'> +5.5774381e+02 </wgt>
<wgt id='12'> +4.7187709e+02 </wgt>
<wgt id='13'> +4.1772414e+02 </wgt>
<wgt id='14'> +5.5774382e+02 </wgt>
<wgt id='15'> +3.4975910e+02 </wgt>
<wgt id='16'> +5.5085252e+02 </wgt>
<wgt id='17'> +4.7829276e+02 </wgt>
<wgt id='18'> +4.2645509e+02 </wgt>
<wgt id='19'> +5.5085253e+02 </wgt>
<wgt id='20'> +3.5883918e+02 </wgt>
<wgt id='21'> +4.3460479e+02 </wgt>
<wgt id='22'> +3.8734400e+02 </wgt>
<wgt id='23'> +5.0481800e+02 </wgt>
<wgt id='24'> +3.2658802e+02 </wgt>
<wgt id='25'> +4.5852009e+02 </wgt>
<wgt id='26'> +3.9539797e+02 </wgt>
<wgt id='27'> +3.5288081e+02 </wgt>
<wgt id='28'> +4.5852009e+02 </wgt>
<wgt id='29'> +2.9817450e+02 </wgt>
<wgt id='30'> +4.6534367e+02 </wgt>
<wgt id='31'> +4.0711231e+02 </wgt>
<wgt id='32'> +3.6500917e+02 </wgt>
<wgt id='33'> +4.6534367e+02 </wgt>
<wgt id='34'> +3.0954552e+02 </wgt>
<wgt id='35'> +4.2645509e+02 </wgt>
<wgt id='36'> +3.6992607e+02 </wgt>
<wgt id='37'> +3.3153342e+02 </wgt>
<wgt id='38'> +4.2645509e+02 </wgt>
<wgt id='39'> +2.8172469e+02 </wgt>
<wgt id='40'> +3.8734400e+02 </wgt>
<wgt id='41'> +3.3655409e+02 </wgt>
<wgt id='42'> +3.0203586e+02 </wgt>
<wgt id='43'> +3.8734400e+02 </wgt>
<wgt id='44'> +2.5721433e+02 </wgt>
<wgt id='45'> +5.0481800e+02 </wgt>
<wgt id='46'> +5.1810064e+02 </wgt>
<wgt id='47'> +5.2969147e+02 </wgt>
<wgt id='48'> +5.1418148e+02 </wgt>
<wgt id='49'> +5.0179040e+02 </wgt>
<wgt id='50'> +6.2661551e+02 </wgt>
<wgt id='51'> +4.9459011e+02 </wgt>
<wgt id='52'> +5.0519034e+02 </wgt>
<wgt id='53'> +4.9993843e+02 </wgt>
<wgt id='54'> +5.0865179e+02 </wgt>
<wgt id='55'> +4.5174710e+02 </wgt>
<wgt id='56'> +4.5470690e+02 </wgt>
<wgt id='57'> +4.9322579e+02 </wgt>
<wgt id='58'> +4.9538095e+02 </wgt>
<wgt id='59'> +5.1397175e+02 </wgt>
<wgt id='60'> +4.9813131e+02 </wgt>
<wgt id='61'> +4.6029834e+02 </wgt>
<wgt id='62'> +4.9985967e+02 </wgt>
<wgt id='63'> +5.0538259e+02 </wgt>
<wgt id='64'> +4.8844666e+02 </wgt>
<wgt id='65'> +5.9106127e+02 </wgt>
<wgt id='66'> +4.9534806e+02 </wgt>
<wgt id='67'> +5.0905368e+02 </wgt>
<wgt id='68'> +5.5852303e+02 </wgt>
<wgt id='69'> +5.0848343e+02 </wgt>
<wgt id='70'> +4.9411128e+02 </wgt>
<wgt id='71'> +5.1333321e+02 </wgt>
<wgt id='72'> +4.6907799e+02 </wgt>
<wgt id='73'> +4.9092767e+02 </wgt>
<wgt id='74'> +5.3538306e+02 </wgt>
<wgt id='75'> +5.1963177e+02 </wgt>
<wgt id='76'> +4.8797029e+02 </wgt>
<wgt id='77'> +4.9441188e+02 </wgt>
<wgt id='78'> +4.8857349e+02 </wgt>
<wgt id='79'> +4.9321313e+02 </wgt>
<wgt id='80'> +4.9407844e+02 </wgt>
<wgt id='81'> +4.9051874e+02 </wgt>
<wgt id='82'> +5.0848835e+02 </wgt>
<wgt id='83'> +5.2105570e+02 </wgt>
<wgt id='84'> +5.6034161e+02 </wgt>
<wgt id='85'> +5.2928450e+02 </wgt>
<wgt id='86'> +5.0972475e+02 </wgt>
<wgt id='87'> +5.0966596e+02 </wgt>
<wgt id='88'> +5.1616303e+02 </wgt>
<wgt id='89'> +5.2187654e+02 </wgt>
<wgt id='90'> +5.1572905e+02 </wgt>
<wgt id='91'> +5.3126912e+02 </wgt>
<wgt id='92'> +4.4219156e+02 </wgt>
<wgt id='93'> +5.0350811e+02 </wgt>
<wgt id='94'> +4.9186346e+02 </wgt>
<wgt id='95'> +4.8080582e+02 </wgt>
<wgt id='96'> +5.6151892e+02 </wgt>
<wgt id='97'> +5.0370233e+02 </wgt>
<wgt id='98'> +4.8554266e+02 </wgt>
<wgt id='99'> +4.8298369e+02 </wgt>
<wgt id='100'> +4.7643940e+02 </wgt>
<wgt id='101'> +5.5977371e+02 </wgt>
<wgt id='102'> +5.1496145e+02 </wgt>
<wgt id='103'> +5.5870139e+02 </wgt>
<wgt id='104'> +5.1119989e+02 </wgt>
<wgt id='105'> +5.1652907e+02 </wgt>
<wgt id='106'> +4.4403952e+02 </wgt>
<wgt id='107'> +4.7640664e+02 </wgt>
<wgt id='108'> +4.3157597e+02 </wgt>
<wgt id='109'> +4.6207466e+02 </wgt>
<wgt id='110'> +5.0085831e+02 </wgt>
<wgt id='111'> +4.8430709e+02 </wgt>
<wgt id='112'> +4.6947644e+02 </wgt>
<wgt id='113'> +4.5397274e+02 </wgt>
<wgt id='114'> +4.8282977e+02 </wgt>
<wgt id='115'> +4.8105655e+02 </wgt>
<wgt id='116'> +5.2498021e+02 </wgt>
<wgt id='117'> +5.0246927e+02 </wgt>
<wgt id='118'> +5.3559964e+02 </wgt>
<wgt id='119'> +4.8006633e+02 </wgt>
<wgt id='120'> +4.8808778e+02 </wgt>
<wgt id='121'> +4.8498208e+02 </wgt>
<wgt id='122'> +4.9598950e+02 </wgt>
<wgt id='123'> +5.1527515e+02 </wgt>
<wgt id='124'> +5.6362465e+02 </wgt>
<wgt id='125'> +5.6350766e+02 </wgt>
<wgt id='126'> +5.3126815e+02 </wgt>
<wgt id='127'> +5.2593732e+02 </wgt>
<wgt id='128'> +4.5554785e+02 </wgt>
<wgt id='129'> +5.7876446e+02 </wgt>
<wgt id='130'> +5.1061621e+02 </wgt>
<wgt id='131'> +5.3819245e+02 </wgt>
<wgt id='132'> +5.1701271e+02 </wgt>
<wgt id='133'> +5.1693222e+02 </wgt>
<wgt id='134'> +4.7933744e+02 </wgt>
<wgt id='135'> +5.1707810e+02 </wgt>
<wgt id='136'> +4.9943047e+02 </wgt>
<wgt id='137'> +4.8105946e+02 </wgt>
<wgt id='138'> +4.7499901e+02 </wgt>
<wgt id='139'> +5.2240070e+02 </wgt>
<wgt id='140'> +5.2729711e+02 </wgt>
<wgt id='141'> +5.0958857e+02 </wgt>
<wgt id='142'> +4.8671145e+02 </wgt>
<wgt id='143'> +5.0947751e+02 </wgt>
<wgt id='144'> +4.9388087e+02 </wgt>
<wgt id='145'> +5.0580840e+02 </wgt>
</rwgt>
</event>
<event>
 4      1 +5.0481800e+02 1.76143400e+02 7.54677100e-03 1.17158900e-01
       21 -1    0    0  503  502 +0.0000000000e+00 +0.0000000000e+00 +8.5671407991e+01 8.5671407991e+01 0.0000000000e+00 0.0000e+00 1.0000e+00
       21 -1    0    0  501  503 -0.0000000000e+00 -0.0000000000e+00 -4.2978744153e+02 4.2978744153e+02 0.0000000000e+00 0.0000e+00 1.0000e+00
        6  1    1    2  501    0 +1.3153154066e+01 -3.0405293015e+01 -2.7429516687e+02 3.2598209441e+02 1.7300000000e+02 0.0000e+00 -1.0000e+00
       -6  1    1    2    0  502 -1.3153154066e+01 +3.0405293015e+01 -6.9820866665e+01 1.8947675511e+02 1.7300000000e+02 0.0000e+00 -1.0000e+00
<mgrwt>
<rscale>  2 0.17614337E+03</rscale>
<asrwt>0</asrwt>
<pdfrwt beam="1">  1       21 0.13180217E-01 0.17614337E+03</pdfrwt>
<pdfrwt beam="2">  1       21 0.66121145E-01 0.17614337E+03</pdfrwt>
<totfact> 0.10477706E+05</totfact>
</mgrwt>
<rwgt>
<wgt id='1'> +6.4546102e+02 </wgt>
<wgt id='2'> +7.4346683e+02 </wgt>
<wgt id='3'> +5.0481800e+02 </wgt>
<wgt id='4'> +6.4546102e+02 </wgt>
<wgt id='5'> +4.9022483e+02 </wgt>
<wgt id='6'> +6.2208313e+02 </wgt>
<wgt id='7'> +7.2059851e+02 </wgt>
<wgt id='8'> +4.7688582e+02 </wgt>
<wgt id='9'> +6.2208312e+02 </wgt>
<wgt id='10'> +4.6263622e+02 </wgt>
<wgt id='11'> +5.8766253e+02 </wgt>
<wgt id='12'> +6.8782026e+02 </wgt>
<wgt id='13'> +4.4953304e+02 </wgt>
<wgt id='14'> +5.8766253e+02 </wgt>
<wgt id='15'> +4.3606436e+02 </wgt>
<wgt id='16'> +5.2378907e+02 </wgt>
<wgt id='17'> +5.9510387e+02 </wgt>
<wgt id='18'> +4.2385102e+02 </wgt>
<wgt id='19'> +5.2378907e+02 </wgt>
<wgt id='20'> +4.1267531e+02 </wgt>
<wgt id='21'> +5.7679904e+02 </wgt>
<wgt id='22'> +4.0039885e+02 </wgt>
<wgt id='23'> +5.0481800e+02 </wgt>
<wgt id='24'> +3.8945098e+02 </wgt>
<wgt id='25'> +4.7688582e+02 </wgt>
<wgt id='26'> +5.5056188e+02 </wgt>
<wgt id='27'> +3.7743314e+02 </wgt>
<wgt id='28'> +4.7688582e+02 </wgt>
<wgt id='29'> +3.6708257e+02 </wgt>
<wgt id='30'> +4.3977935e+02 </wgt>
<wgt id='31'> +4.9082471e+02 </wgt>
<wgt id='32'> +3.6115422e+02 </wgt>
<wgt id='33'> +4.3977935e+02 </wgt>
<wgt id='34'> +3.5218113e+02 </wgt>
<wgt id='35'> +4.2385103e+02 </wgt>
<wgt id='36'> +4.7572741e+02 </wgt>
<wgt id='37'> +3.4117113e+02 </wgt>
<wgt id='38'> +4.2385102e+02 </wgt>
<wgt id='39'> +3.3236126e+02 </wgt>
<wgt id='40'> +4.0039885e+02 </wgt>
<wgt id='41'> +4.5408774e+02 </wgt>
<wgt id='42'> +3.2160255e+02 </wgt>
<wgt id='43'> +4.0039885e+02 </wgt>
<wgt id='44'> +3.1327184e+02 </wgt>
<wgt id='45'> +5.0481800e+02 </wgt>
<wgt id='46'> +5.0654547e+02 </wgt>
<wgt id='47'> +5.1971752e+02 </wgt>
<wgt id='48'> +5.0585701e+02 </wgt>
<wgt id='49'> +5.0247084e+02 </wgt>
<wgt id='50'> +5.8367264e+02 </wgt>
<wgt id='51'> +4.9491379e+02 </wgt>
<wgt id='52'> +5.0343496e+02 </wgt>
<wgt id='53'> +5.0693994e+02 </wgt>
<wgt id='54'> +5.0844340e+02 </wgt>
<wgt id='55'> +4.6135849e+02 </wgt>
<wgt id='56'> +4.6960953e+02 </wgt>
<wgt id='57'> +4.9665962e+02 </wgt>
<wgt id='58'> +5.0694907e+02 </wgt>
<wgt id='59'> +5.0486173e+02 </wgt>
<wgt id='60'> +4.9136642e+02 </wgt>
<wgt id='61'> +4.7944646e+02 </wgt>
<wgt id='62'> +4.9756468e+02 </wgt>
<wgt id='63'> +5.0543324e+02 </wgt>
<wgt id='64'> +4.9951490e+02 </wgt>
<wgt id='65'> +5.8012474e+02 </wgt>
<wgt id='66'> +4.9350574e+02 </wgt>
<wgt id='67'> +5.0885680e+02 </wgt>
<wgt id='68'> +5.4250887e+02 </wgt>
<wgt id='69'> +4.9250236e+02 </wgt>
<wgt id='70'> +4.9748487e+02 </wgt>
<wgt id='71'> +5.1356138e+02 </wgt>
<wgt id='72'> +4.9430272e+02 </wgt>
<wgt id='73'> +4.9756479e+02 </wgt>
<wgt id='74'> +5.2140522e+02 </wgt>
<wgt id='75'> +5.1452061e+02 </wgt>
<wgt id='76'> +4.9369208e+02 </wgt>
<wgt id='77'> +4.8938073e+02 </wgt>
<wgt id='78'> +5.0020181e+02 </wgt>
<wgt id='79'> +4.8851581e+02 </wgt>
<wgt id='80'> +4.9890444e+02 </wgt>
<wgt id='81'> +4.9644771e+02 </wgt>
<wgt id='82'> +5.1264182e+02 </wgt>
<wgt id='83'> +5.1181217e+02 </wgt>
<wgt id='84'> +5.4728477e+02 </wgt>
<wgt id='85'> +5.2529139e+02 </wgt>
<wgt id='86'> +5.0168520e+02 </wgt>
<wgt id='87'> +5.0559159e+02 </wgt>
<wgt id='88'> +5.0972810e+02 </wgt>
<wgt id='89'> +5.1543898e+02 </wgt>
<wgt id='90'> +5.1235538e+02 </wgt>
<wgt id='91'> +5.3108717e+02 </wgt>
<wgt id='92'> +4.6920768e+02 </wgt>
<wgt id='93'> +4.9744432e+02 </wgt>
<wgt id='94'> +5.0093108e+02 </wgt>
<wgt id='95'> +4.8995841e+02 </wgt>
<wgt id='96'> +5.3966518e+02 </wgt>
<wgt id='97'> +5.0965630e+02 </wgt>
<wgt id='98'> +4.8506011e+02 </wgt>
<wgt id='99'> +4.8904642e+02 </wgt>
<wgt id='100'> +4.9651310e+02 </wgt>
<wgt id='101'> +5.3415352e+02 </wgt>
<wgt id='102'> +4.9599261e+02 </wgt>
<wgt id='103'> +5.4477939e+02 </wgt>
<wgt id='104'> +5.0342663e+02 </wgt>
<wgt id='105'> +5.2473534e+02 </wgt>
<wgt id='106'> +4.6760271e+02 </wgt>
<wgt id='107'> +4.9661000e+02 </wgt>
<wgt id='108'> +4.5422463e+02 </wgt>
<wgt id='109'> +4.7714257e+02 </wgt>
<wgt id='110'> +5.0577804e+02 </wgt>
<wgt id='111'> +4.9271032e+02 </wgt>
<wgt id='112'> +4.8170866e+02 </wgt>
<wgt id='113'> +4.6719270e+02 </wgt>
<wgt id='114'> +5.0226942e+02 </wgt>
<wgt id='115'> +4.9753688e+02 </wgt>
<wgt id='116'> +5.0638236e+02 </wgt>
<wgt id='117'> +5.0752782e+02 </wgt>
<wgt id='118'> +5.1835238e+02 </wgt>
<wgt id='119'> +4.8876542e+02 </wgt>
<wgt id='120'> +4.9809267e+02 </wgt>
<wgt id='121'> +4.9397624e+02 </wgt>
<wgt id='122'> +4.9936485e+02 </wgt>
<wgt id='123'> +5.0870102e+02 </wgt>
<wgt id='124'> +5.4061154e+02 </wgt>
<wgt id='125'> +5.4272930e+02 </wgt>
<wgt id='126'> +5.2099427e+02 </wgt>
<wgt id='127'> +5.1818897e+02 </wgt>
<wgt id='128'> +4.6666518e+02 </wgt>
<wgt id='129'> +5.6743796e+02 </wgt>
<wgt id='130'> +5.0374906e+02 </wgt>
<wgt id='131'> +5.3575066e+02 </wgt>
<wgt id='132'> +5.0863157e+02 </wgt>
<wgt id='133'> +5.0458213e+02 </wgt>
<wgt id='134'> +4.8075728e+02 </wgt>
<wgt id='135'> +5.1605747e+02 </wgt>
<wgt id='136'> +4.9482461e+02 </wgt>
<wgt id='137'> +4.7703604e+02 </wgt>
<wgt id='138'> +4.6084859e+02 </wgt>
<wgt id='139'> +5.1541684e+02 </wgt>
<wgt id='140'> +5.3145509e+02 </wgt>
<wgt id='141'> +5.0499155e+02 </wgt>
<wgt id='142'> +5.0097773e+02 </wgt>
<wgt id='143'> +5.0531238e+02 </wgt>
<wgt id='144'> +5.0417054e+02 </wgt>
<wgt id='145'> +5.0514180e+02 </wgt>
</rwgt>
</event>
<event>
 4      1 +5.0481800e+02 1.73535700e+02 7.54677100e-03 1.17421000e-01
       21 -1    0    0  501  502 +0.0000000000e+00 +0.0000000000e+00 +6.3627224776e+02 6.3627224776e+02 0.0000000000e+00 0.0000e+00 -1.0000e+00
       21 -1    0    0  502  503 -0.0000000000e+00 -0.0000000000e+00 -4.8380589235e+01 4.8380589235e+01 0.0000000000e+00 0.0000e+00 -1.0000e+00
        6  1    1    2  501    0 +1.2481717264e+01 +5.4635324211e+00 +2.4349585469e+02 2.9900647937e+02 1.7300000000e+02 0.0000e+00 1.0000e+00
       -6  1    1    2    0  503 -1.2481717264e+01 -5.4635324211e+00 +3.4439580384e+02 3.8564635763e+02 1.7300000000e+02 0.0000e+00 1.0000e+00
<mgrwt>
<rscale>  2 0.17353571E+03</rscale>
<asrwt>0</asrwt>
<pdfrwt beam="1">  1       21 0.97888032E-01 0.17353571E+03</pdfrwt>
<pdfrwt beam="2">  1       21 0.74431680E-02 0.17353571E+03</pdfrwt>
<totfact> 0.11833175E+05</totfact>
</mgrwt>
<rwgt>
<wgt id='1'> +6.4616193e+02 </wgt>
<wgt id='2'> +1.2504851e+03 </wgt>
<wgt id='3'> +5.0481800e+02 </wgt>
<wgt id='4'> +6.4616193e+02 </wgt>
<wgt id='5'> +5.0290715e+02 </wgt>
<wgt id='6'> +6.2251033e+02 </wgt>
<wgt id='7'> +1.2545891e+03 </wgt>
<wgt id='8'> +4.7648365e+02 </wgt>
<wgt id='9'> +6.2251033e+02 </wgt>
<wgt id='10'> +4.7459886e+02 </wgt>
<wgt id='11'> +5.8757017e+02 </wgt>
<wgt id='12'> +1.2303693e+03 </wgt>
<wgt id='13'> +4.4860368e+02 </wgt>
<wgt id='14'> +5.8757017e+02 </wgt>
<wgt id='15'> +4.4682290e+02 </wgt>
<wgt id='16'> +5.2399801e+02 </wgt>
<wgt id='17'> +9.4236026e+02 </wgt>
<wgt id='18'> +4.2363688e+02 </wgt>
<wgt id='19'> +5.2399801e+02 </wgt>
<wgt id='20'> +4.2219103e+02 </wgt>
<wgt id='21'> +9.4545303e+02 </wgt>
<wgt id='22'> +3.9985906e+02 </wgt>
<wgt id='23'> +5.0481800e+02 </wgt>
<wgt id='24'> +3.9842619e+02 </wgt>
<wgt id='25'> +4.7648366e+02 </wgt>
<wgt id='26'> +9.2720109e+02 </wgt>
<wgt id='27'> +3.7646254e+02 </wgt>
<wgt id='28'> +4.7648365e+02 </wgt>
<wgt id='29'> +3.7510825e+02 </wgt>
<wgt id='30'> +4.3973250e+02 </wgt>
<wgt id='31'> +7.3553796e+02 </wgt>
<wgt id='32'> +3.6087197e+02 </wgt>
<wgt id='33'> +4.3973250e+02 </wgt>
<wgt id='34'> +3.5971361e+02 </wgt>
<wgt id='35'> +4.2363688e+02 </wgt>
<wgt id='36'> +7.3795195e+02 </wgt>
<wgt id='37'> +3.4061701e+02 </wgt>
<wgt id='38'> +4.2363688e+02 </wgt>
<wgt id='39'> +3.3946558e+02 </wgt>
<wgt id='40'> +3.9985906e+02 </wgt>
<wgt id='41'> +7.2370581e+02 </wgt>
<wgt id='42'> +3.2068685e+02 </wgt>
<wgt id='43'> +3.9985906e+02 </wgt>
<wgt id='44'> +3.1959831e+02 </wgt>
<wgt id='45'> +5.0481800e+02 </wgt>
<wgt id='46'> +5.1289326e+02 </wgt>
<wgt id='47'> +5.1634749e+02 </wgt>
<wgt id='48'> +5.0606572e+02 </wgt>
<wgt id='49'> +4.9742581e+02 </wgt>
<wgt id='50'> +5.8480621e+02 </wgt>
<wgt id='51'> +4.9277103e+02 </wgt>
<wgt id='52'> +5.0387046e+02 </wgt>
<wgt id='53'> +4.9893999e+02 </wgt>
<wgt id='54'> +5.1274308e+02 </wgt>
<wgt id='55'> +4.8323816e+02 </wgt>
<wgt id='56'> +4.6718237e+02 </wgt>
<wgt id='57'> +5.0788383e+02 </wgt>
<wgt id='58'> +4.9813737e+02 </wgt>
<wgt id='59'> +5.2214189e+02 </wgt>
<wgt id='60'> +5.0549945e+02 </wgt>
<wgt id='61'> +4.5180038e+02 </wgt>
<wgt id='62'> +4.9481091e+02 </wgt>
<wgt id='63'> +5.0784859e+02 </wgt>
<wgt id='64'> +4.9839552e+02 </wgt>
<wgt id='65'> +5.5003820e+02 </wgt>
<wgt id='66'> +4.9614745e+02 </wgt>
<wgt id='67'> +5.0747999e+02 </wgt>
<wgt id='68'> +5.5161996e+02 </wgt>
<wgt id='69'> +4.9950710e+02 </wgt>
<wgt id='70'> +5.0048470e+02 </wgt>
<wgt id='71'> +5.0836637e+02 </wgt>
<wgt id='72'> +4.9228893e+02 </wgt>
<wgt id='73'> +4.9145777e+02 </wgt>
<wgt id='74'> +5.3047918e+02 </wgt>
<wgt id='75'> +5.1478860e+02 </wgt>
<wgt id='76'> +5.0006697e+02 </wgt>
<wgt id='77'> +4.9489042e+02 </wgt>
<wgt id='78'> +4.8499516e+02 </wgt>
<wgt id='79'> +4.9996932e+02 </wgt>
<wgt id='80'> +4.9191277e+02 </wgt>
<wgt id='81'> +4.9778521e+02 </wgt>
<wgt id='82'> +4.9870126e+02 </wgt>
<wgt id='83'> +5.0682761e+02 </wgt>
<wgt id='84'> +5.3451940e+02 </wgt>
<wgt id='85'> +5.1180958e+02 </wgt>
<wgt id='86'> +5.0561529e+02 </wgt>
<wgt id='87'> +5.0740387e+02 </wgt>
<wgt id='88'> +5.0380935e+02 </wgt>
<wgt id='89'> +5.0896638e+02 </wgt>
<wgt id='90'> +5.1319982e+02 </wgt>
<wgt id='91'> +5.1459211e+02 </wgt>
<wgt id='92'> +4.6962892e+02 </wgt>
<wgt id='93'> +5.0194355e+02 </wgt>
<wgt id='94'> +4.9303451e+02 </wgt>
<wgt id='95'> +5.0136322e+02 </wgt>
<wgt id='96'> +5.3336666e+02 </wgt>
<wgt id='97'> +4.9944755e+02 </wgt>
<wgt id='98'> +4.9474498e+02 </wgt>
<wgt id='99'> +4.8107001e+02 </wgt>
<wgt id='100'> +4.7582542e+02 </wgt>
<wgt id='101'> +5.5014243e+02 </wgt>
<wgt id='102'> +5.1527309e+02 </wgt>
<wgt id='103'> +5.3758868e+02 </wgt>
<wgt id='104'> +5.0689510e+02 </wgt>
<wgt id='105'> +5.2211296e+02 </wgt>
<wgt id='106'> +4.6875274e+02 </wgt>
<wgt id='107'> +4.8731887e+02 </wgt>
<wgt id='108'> +4.5387776e+02 </wgt>
<wgt id='109'> +4.8114825e+02 </wgt>
<wgt id='110'> +5.0189650e+02 </wgt>
<wgt id='111'> +4.9293395e+02 </wgt>
<wgt id='112'> +4.8330942e+02 </wgt>
<wgt id='113'> +4.7449395e+02 </wgt>
<wgt id='114'> +4.9919995e+02 </wgt>
<wgt id='115'> +4.8031728e+02 </wgt>
<wgt id='116'> +5.1756740e+02 </wgt>
<wgt id='117'> +4.9928398e+02 </wgt>
<wgt id='118'> +5.2430036e+02 </wgt>
<wgt id='119'> +4.9734173e+02 </wgt>
<wgt id='120'> +4.9359142e+02 </wgt>
<wgt id='121'> +4.9895618e+02 </wgt>
<wgt id='122'> +4.9999366e+02 </wgt>
<wgt id='123'> +5.0484303e+02 </wgt>
<wgt id='124'> +5.5074767e+02 </wgt>
<wgt id='125'> +5.5747632e+02 </wgt>
<wgt id='126'> +5.1681929e+02 </wgt>
<wgt id='127'> +5.1492750e+02 </wgt>
<wgt id='128'> +4.6245842e+02 </wgt>
<wgt id='129'> +5.5878309e+02 </wgt>
<wgt id='130'> +4.9723932e+02 </wgt>
<wgt id='131'> +5.2318962e+02 </wgt>
<wgt id='132'> +5.2855530e+02 </wgt>
<wgt id='133'> +5.1632317e+02 </wgt>
<wgt id='134'> +4.9342418e+02 </wgt>
<wgt id='135'> +5.1076639e+02 </wgt>
<wgt id='136'> +5.2168530e+02 </wgt>
<wgt id='137'> +4.8378710e+02 </wgt>
<wgt id='138'> +4.7179674e+02 </wgt>
<wgt id='139'> +5.1879344e+02 </wgt>
<wgt id='140'> +5.1894367e+02 </wgt>
<wgt id='141'> +5.1225087e+02 </wgt>
<wgt id='142'> +4.7925367e+02 </wgt>
<wgt id='143'> +5.1467024e+02 </wgt>
<wgt id='144'> +4.9727903e+02 </wgt>
<wgt id='145'> +4.9950689e+02 </wgt>
</rwgt>
</event>
<event>
 4      1 +5.0481800e+02 2.40509000e+02 7.54677100e-03 1.11945400e-01
       21 -1    0    0  503  502 +0.0000000000e+00 +0.0000000000e+00 +4.1517949277e+02 4.1517949277e+02 0.0000000000e+00 0.0000e+00 1.0000e+00
       21 -1    0    0  501  503 -0.0000000000e+00 -0.0000000000e+00 -2.5280555015e+02 2.5280555015e+02 0.0000000000e+00 0.0000e+00 -1.0000e+00
        6  1    1    2  501    0 -1.0904803215e+02 +1.2658627963e+02 -1.4258497887e+02 2.7959798945e+02 1.7300000000e+02 0.0000e+00 -1.0000e+00
       -6  1    1    2    0  502 +1.0904803215e+02 -1.2658627963e+02 +3.0495892149e+02 3.8838705347e+02 1.7300000000e+02 0.0000e+00 1.0000e+00
<mgrwt>
<rscale>  2 0.24050896E+03</rscale>
<asrwt>0</asrwt>
<pdfrwt beam="1">  1       21 0.63873768E-01 0.24050896E+03</pdfrwt>
<pdfrwt beam="2">  1       21 0.38893162E-01 0.24050896E+03</pdfrwt>
<totfact> 0.14022637E+04</totfact>
</mgrwt>
<rwgt>
<wgt id='1'> +6.6346256e+02 </wgt>
<wgt id='2'> +5.4229740e+02 </wgt>
<wgt id='3'> +5.0481800e+02 </wgt>
<wgt id='4'> +6.6346256e+02 </wgt>
<wgt id='5'> +4.5130879e+02 </wgt>
<wgt id='6'> +6.1208476e+02 </wgt>
<wgt id='7'> +4.9596130e+02 </wgt>
<wgt id='8'> +4.6199196e+02 </wgt>
<wgt id='9'> +6.1208476e+02 </wgt>
<wgt id='10'> +4.1340815e+02 </wgt>
<wgt id='11'> +5.6015879e+02 </wgt>
<wgt id='12'> +4.5463234e+02 </wgt>
<wgt id='13'> +4.2377279e+02 </wgt>
<wgt id='14'> +5.6015879e+02 </wgt>
<wgt id='15'> +3.7962460e+02 </wgt>
<wgt id='16'> +5.4719193e+02 </wgt>
<wgt id='17'> +4.5697990e+02 </wgt>
<wgt id='18'> +4.2698035e+02 </wgt>
<wgt id='19'> +5.4719194e+02 </wgt>
<wgt id='20'> +3.8394674e+02 </wgt>
<wgt id='21'> +4.1793368e+02 </wgt>
<wgt id='22'> +3.9075763e+02 </wgt>
<wgt id='23'> +5.0481800e+02 </wgt>
<wgt id='24'> +3.5170312e+02 </wgt>
<wgt id='25'> +4.6199196e+02 </wgt>
<wgt id='26'> +3.8310684e+02 </wgt>
<wgt id='27'> +3.5843146e+02 </wgt>
<wgt id='28'> +4.6199196e+02 </wgt>
<wgt id='29'> +3.2296208e+02 </wgt>
<wgt id='30'> +4.6282066e+02 </wgt>
<wgt id='31'> +3.9027083e+02 </wgt>
<wgt id='32'> +3.6584731e+02 </wgt>
<wgt id='33'> +4.6282066e+02 </wgt>
<wgt id='34'> +3.3061408e+02 </wgt>
<wgt id='35'> +4.2698035e+02 </wgt>
<wgt id='36'> +3.5692451e+02 </wgt>
<wgt id='37'> +3.3481080e+02 </wgt>
<wgt id='38'> +4.2698035e+02 </wgt>
<wgt id='39'> +3.0284931e+02 </wgt>
<wgt id='40'> +3.9075763e+02 </wgt>
<wgt id='41'> +3.2718162e+02 </wgt>
<wgt id='42'> +3.0711293e+02 </wgt>
<wgt id='43'> +3.9075763e+02 </wgt>
<wgt id='44'> +2.7810058e+02 </wgt>
<wgt id='45'> +5.0481800e+02 </wgt>
<wgt id='46'> +5.1518196e+02 </wgt>
<wgt id='47'> +5.2808906e+02 </wgt>
<wgt id='48'> +5.1243358e+02 </wgt>
<wgt id='49'> +5.0196655e+02 </wgt>
<wgt id='50'> +6.1740788e+02 </wgt>
<wgt id='51'> +4.9465215e+02 </wgt>
<wgt id='52'> +5.0417446e+02 </wgt>
<wgt id='53'> +5.0242914e+02 </wgt>
<wgt id='54'> +5.0864986e+02 </wgt>
<wgt id='55'> +4.5257762e+02 </wgt>
<wgt id='56'> +4.5842145e+02 </wgt>
<wgt id='57'> +4.9311646e+02 </wgt>
<wgt id='58'> +4.9779482e+02 </wgt>
<wgt id='59'> +5.1037284e+02 </wgt>
<wgt id='60'> +4.9501331e+02 </wgt>
<wgt id='61'> +4.6646421e+02 </wgt>
<wgt id='62'> +4.9936858e+02 </wgt>
<wgt id='63'> +5.0550546e+02 </wgt>
<wgt id='64'> +4.9121117e+02 </wgt>
<wgt id='65'> +5.9088239e+02 </wgt>
<wgt id='66'> +4.9508970e+02 </wgt>
<wgt id='67'> +5.0910007e+02 </wgt>
<wgt id='68'> +5.5453517e+02 </wgt>
<wgt id='69'> +5.0541029e+02 </wgt>
<wgt id='70'> +4.9493078e+02 </wgt>
<wgt id='71'> +5.1327640e+02 </wgt>
<wgt id='72'> +4.7369811e+02 </wgt>
<wgt id='73'> +4.9225026e+02 </wgt>
<wgt id='74'> +5.3197939e+02 </wgt>
<wgt id='75'> +5.1894273e+02 </wgt>
<wgt id='76'> +4.8873522e+02 </wgt>
<wgt id='77'> +4.9261507e+02 </wgt>
<wgt id='78'> +4.9192640e+02 </wgt>
<wgt id='79'> +4.9160443e+02 </wgt>
<wgt id='80'> +4.9529919e+02 </wgt>
<wgt id='81'> +4.9185853e+02 </wgt>
<wgt id='82'> +5.1031417e+02 </wgt>
<wgt id='83'> +5.1966416e+02 </wgt>
<wgt id='84'> +5.5845026e+02 </wgt>
<wgt id='85'> +5.2906910e+02 </wgt>
<wgt id='86'> +5.0808997e+02 </wgt>
<wgt id='87'> +5.0849652e+02 </wgt>
<wgt id='88'> +5.1552054e+02 </wgt>
<wgt id='89'> +5.1999405e+02 </wgt>
<wgt id='90'> +5.1418795e+02 </wgt>
<wgt id='91'> +5.3188307e+02 </wgt>
<wgt id='92'> +4.4739613e+02 </wgt>
<wgt id='93'> +5.0195770e+02 </wgt>
<wgt id='94'> +4.9390382e+02 </wgt>
<wgt id='95'> +4.8199254e+02 </wgt>
<wgt id='96'> +5.5743520e+02 </wgt>
<wgt id='97'> +5.0536443e+02 </wgt>
<wgt id='98'> +4.8517408e+02 </wgt>
<wgt id='99'> +4.8422424e+02 </wgt>
<wgt id='100'> +4.8116764e+02 </wgt>
<wgt id='101'> +5.5298445e+02 </wgt>
<wgt id='102'> +5.0984640e+02 </wgt>
<wgt id='103'> +5.5544108e+02 </wgt>
<wgt id='104'> +5.0992535e+02 </wgt>
<wgt id='105'> +5.1813323e+02 </wgt>
<wgt id='106'> +4.4901714e+02 </wgt>
<wgt id='107'> +4.8125902e+02 </wgt>
<wgt id='108'> +4.3682918e+02 </wgt>
<wgt id='109'> +4.6519814e+02 </wgt>
<wgt id='110'> +5.0160378e+02 </wgt>
<wgt id='111'> +4.8611863e+02 </wgt>
<wgt id='112'> +4.7274901e+02 </wgt>
<wgt id='113'> +4.5677524e+02 </wgt>
<wgt id='114'> +4.8766230e+02 </wgt>
<wgt id='115'> +4.8670842e+02 </wgt>
<wgt id='116'> +5.2057312e+02 </wgt>
<wgt id='117'> +5.0447276e+02 </wgt>
<wgt id='118'> +5.3136197e+02 </wgt>
<wgt id='119'> +4.8169556e+02 </wgt>
<wgt id='120'> +4.9191587e+02 </wgt>
<wgt id='121'> +4.8633664e+02 </wgt>
<wgt id='122'> +4.9656856e+02 </wgt>
<wgt id='123'> +5.1432320e+02 </wgt>
<wgt id='124'> +5.5778759e+02 </wgt>
<wgt id='125'> +5.5829899e+02 </wgt>
<wgt id='126'> +5.2942703e+02 </wgt>
<wgt id='127'> +5.2416167e+02 </wgt>
<wgt id='128'> +4.5908762e+02 </wgt>
<wgt id='129'> +5.7615138e+02 </wgt>
<wgt id='130'> +5.1015085e+02 </wgt>
<wgt id='131'> +5.3797060e+02 </wgt>
<wgt id='132'> +5.1308706e+02 </wgt>
<wgt id='133'> +5.1364745e+02 </wgt>
<wgt id='134'> +4.7884410e+02 </wgt>
<wgt id='135'> +5.1683577e+02 </wgt>
<wgt id='136'> +4.9651250e+02 </wgt>
<wgt id='137'> +4.8043256e+02 </wgt>
<wgt id='138'> +4.7233936e+02 </wgt>
<wgt id='139'> +5.2041942e+02 </wgt>
<wgt id='140'> +5.2887751e+02 </wgt>
<wgt id='141'> +5.0877691e+02 </wgt>
<wgt id='142'> +4.9060544e+02 </wgt>
<wgt id='143'> +5.0743939e+02 </wgt>
<wgt id='144'> +4.9589607e+02 </wgt>
<wgt id='145'> +5.0561062e+02 </wgt>
</rwgt>
</event>
<event>
 4      1 +5.0481800e+02 2.72294100e+02 7.54677100e-03 1.09997400e-01
       -2 -1    0    0    0  501 -0.0000000000e+00 +0.0000000000e+00 +3.9932764763e+01 3.9932764763e+01 0.0000000000e+00 0.0000e+00 -1.0000e+00
        2 -1    0    0  502    0 +0.0000000000e+00 -0.0000000000e+00 -1.9101794371e+03 1.9101794371e+03 0.0000000000e+00 0.0000e+00 1.0000e+00
        6  1    1    2  502    0 +1.5954318762e+02 -1.3697107026e+02 -7.7200961710e+02 8.1862259418e+02 1.7300000000e+02 0.0000e+00 -1.0000e+00
       -6  1    1    2    0  501 -1.5954318762e+02 +1.3697107026e+02 -1.0982370552e+03 1.1314896077e+03 1.7300000000e+02 0.0000e+00 1.0000e+00
<mgrwt>
<rscale>  2 0.27229415E+03</rscale>
<asrwt>0</asrwt>
<pdfrwt beam="2">  1        2 0.29387379E+00 0.27229415E+03</pdfrwt>
<pdfrwt beam="1">  1       -2 0.61435017E-02 0.27229415E+03</pdfrwt>
<totfact> 0.11820619E+03</totfact>
</mgrwt>
<rwgt>
<wgt id='1'> +6.1841651e+02 </wgt>
<wgt id='2'> +5.3974887e+02 </wgt>
<wgt id='3'> +5.0481800e+02 </wgt>
<wgt id='4'> +6.1841652e+02 </wgt>
<wgt id='5'> +5.0285035e+02 </wgt>
<wgt id='6'> +6.0820222e+02 </wgt>
<wgt id='7'> +5.2938967e+02 </wgt>
<wgt id='8'> +4.9450682e+02 </wgt>
<wgt id='9'> +6.0820222e+02 </wgt>
<wgt id='10'> +4.9254520e+02 </wgt>
<wgt id='11'> +5.9577936e+02 </wgt>
<wgt id='12'> +5.1754510e+02 </wgt>
<wgt id='13'> +4.8300981e+02 </wgt>
<wgt id='14'> +5.9577936e+02 </wgt>
<wgt id='15'> +4.8106996e+02 </wgt>
<wgt id='16'> +5.1329603e+02 </wgt>
<wgt id='17'> +4.5548711e+02 </wgt>
<wgt id='18'> +4.2803566e+02 </wgt>
<wgt id='19'> +5.1329603e+02 </wgt>
<wgt id='20'> +4.2648650e+02 </wgt>
<wgt id='21'> +4.4674512e+02 </wgt>
<wgt id='22'> +4.1929280e+02 </wgt>
<wgt id='23'> +5.0481800e+02 </wgt>
<wgt id='24'> +4.1774632e+02 </wgt>
<wgt id='25'> +4.9450682e+02 </wgt>
<wgt id='26'> +4.3674964e+02 </wgt>
<wgt id='27'> +4.0954448e+02 </wgt>
<wgt id='28'> +4.9450682e+02 </wgt>
<wgt id='29'> +4.0801373e+02 </wgt>
<wgt id='30'> +4.3522420e+02 </wgt>
<wgt id='31'> +3.8947814e+02 </wgt>
<wgt id='32'> +3.6752616e+02 </wgt>
<wgt id='33'> +4.3522420e+02 </wgt>
<wgt id='34'> +3.6628277e+02 </wgt>
<wgt id='35'> +4.2803566e+02 </wgt>
<wgt id='36'> +3.8200304e+02 </wgt>
<wgt id='37'> +3.6001924e+02 </wgt>
<wgt id='38'> +4.2803566e+02 </wgt>
<wgt id='39'> +3.5877637e+02 </wgt>
<wgt id='40'> +4.1929280e+02 </wgt>
<wgt id='41'> +3.7345610e+02 </wgt>
<wgt id='42'> +3.5164899e+02 </wgt>
<wgt id='43'> +4.1929280e+02 </wgt>
<wgt id='44'> +3.5041766e+02 </wgt>
<wgt id='45'> +5.0481800e+02 </wgt>
<wgt id='46'> +5.1345703e+02 </wgt>
<wgt id='47'> +4.8911414e+02 </wgt>
<wgt id='48'> +4.8805636e+02 </wgt>
<wgt id='49'> +4.9496329e+02 </wgt>
<wgt id='50'> +4.4738278e+02 </wgt>
<wgt id='51'> +4.9210415e+02 </wgt>
<wgt id='52'> +5.0037362e+02 </wgt>
<wgt id='53'> +5.2226370e+02 </wgt>
<wgt id='54'> +4.9633364e+02 </wgt>
<wgt id='55'> +4.7627788e+02 </wgt>
<wgt id='56'> +5.3571902e+02 </wgt>
<wgt id='57'> +4.8553080e+02 </wgt>
<wgt id='58'> +5.3963051e+02 </wgt>
<wgt id='59'> +4.5830174e+02 </wgt>
<wgt id='60'> +5.1843541e+02 </wgt>
<wgt id='61'> +5.5551880e+02 </wgt>
<wgt id='62'> +5.1897670e+02 </wgt>
<wgt id='63'> +5.0935633e+02 </wgt>
<wgt id='64'> +4.9578079e+02 </wgt>
<wgt id='65'> +4.9209129e+02 </wgt>
<wgt id='66'> +5.0615723e+02 </wgt>
<wgt id='67'> +5.1890797e+02 </wgt>
<wgt id='68'> +4.3212560e+02 </wgt>
<wgt id='69'> +4.7804596e+02 </wgt>
<wgt id='70'> +5.0096098e+02 </wgt>
<wgt id='71'> +5.0989986e+02 </wgt>
<wgt id='72'> +5.3276333e+02 </wgt>
<wgt id='73'> +5.2845912e+02 </wgt>
<wgt id='74'> +4.4831596e+02 </wgt>
<wgt id='75'> +4.7945422e+02 </wgt>
<wgt id='76'> +5.3107063e+02 </wgt>
<wgt id='77'> +5.1479161e+02 </wgt>
<wgt id='78'> +5.3653005e+02 </wgt>
<wgt id='79'> +5.0955380e+02 </wgt>
<wgt id='80'> +5.5490078e+02 </wgt>
<wgt id='81'> +5.1770578e+02 </wgt>
<wgt id='82'> +5.0067253e+02 </wgt>
<wgt id='83'> +4.9856484e+02 </wgt>
<wgt id='84'> +5.1353978e+02 </wgt>
<wgt id='85'> +5.0485620e+02 </wgt>
<wgt id='86'> +5.0375587e+02 </wgt>
<wgt id='87'> +5.1183233e+02 </wgt>
<wgt id='88'> +5.0857267e+02 </wgt>
<wgt id='89'> +5.2881422e+02 </wgt>
<wgt id='90'> +5.4606158e+02 </wgt>
<wgt id='91'> +4.6663844e+02 </wgt>
<wgt id='92'> +5.4728016e+02 </wgt>
<wgt id='93'> +4.9610190e+02 </wgt>
<wgt id='94'> +5.1909102e+02 </wgt>
<wgt id='95'> +5.0233902e+02 </wgt>
<wgt id='96'> +4.8901598e+02 </wgt>
<wgt id='97'> +5.3248393e+02 </wgt>
<wgt id='98'> +5.1556514e+02 </wgt>
<wgt id='99'> +5.4229977e+02 </wgt>
<wgt id='100'> +5.2758073e+02 </wgt>
<wgt id='101'> +4.3514091e+02 </wgt>
<wgt id='102'> +4.7429343e+02 </wgt>
<wgt id='103'> +4.9122767e+02 </wgt>
<wgt id='104'> +4.8523798e+02 </wgt>
<wgt id='105'> +5.0509452e+02 </wgt>
<wgt id='106'> +5.5366227e+02 </wgt>
<wgt id='107'> +4.9860697e+02 </wgt>
<wgt id='108'> +5.5680704e+02 </wgt>
<wgt id='109'> +5.1155756e+02 </wgt>
<wgt id='110'> +5.3307544e+02 </wgt>
<wgt id='111'> +5.3201068e+02 </wgt>
<wgt id='112'> +5.1590511e+02 </wgt>
<wgt id='113'> +5.1160661e+02 </wgt>
<wgt id='114'> +4.9981963e+02 </wgt>
<wgt id='115'> +5.2553493e+02 </wgt>
<wgt id='116'> +4.5963054e+02 </wgt>
<wgt id='117'> +5.0028851e+02 </wgt>
<wgt id='118'> +4.8105284e+02 </wgt>
<wgt id='119'> +5.1233954e+02 </wgt>
<wgt id='120'> +5.1346190e+02 </wgt>
<wgt id='121'> +5.0284706e+02 </wgt>
<wgt id='122'> +5.2321657e+02 </wgt>
<wgt id='123'> +5.4053557e+02 </wgt>
<wgt id='124'> +4.6233137e+02 </wgt>
<wgt id='125'> +4.2369632e+02 </wgt>
<wgt id='126'> +5.0813864e+02 </wgt>
<wgt id='127'> +4.9888893e+02 </wgt>
<wgt id='128'> +5.0298455e+02 </wgt>
<wgt id='129'> +4.6453255e+02 </wgt>
<wgt id='130'> +4.9751791e+02 </wgt>
<wgt id='131'> +5.0361879e+02 </wgt>
<wgt id='132'> +4.7327080e+02 </wgt>
<wgt id='133'> +4.9686476e+02 </wgt>
<wgt id='134'> +4.9283085e+02 </wgt>
<wgt id='135'> +4.8357825e+02 </wgt>
<wgt id='136'> +4.8739047e+02 </wgt>
<wgt id='137'> +5.2588182e+02 </wgt>
<wgt id='138'> +5.1511919e+02 </wgt>
<wgt id='139'> +5.0204638e+02 </wgt>
<wgt id='140'> +4.9978735e+02 </wgt>
<wgt id='141'> +4.7594338e+02 </wgt>
<wgt id='142'> +5.5517563e+02 </wgt>
<wgt id='143'> +5.1767355e+02 </wgt>
<wgt id='144'> +5.3938530e+02 </wgt>
<wgt id='145'> +5.3621114e+02 </wgt>
</rwgt>
</event>
<event>
 4      1 +5.0481800e+02 3.96698900e+02 7.54677100e-03 1.04492900e-01
       21 -1    0    0  503  502 +0.0000000000e+00 +0.0000000000e+00 +1.5121425739e+03 1.5121425739e+03 0.0000000000e+00 0.0000e+00 1.0000e+00
       21 -1    0    0  501  503 -0.0000000000e+00 -0.0000000000e+00 -1.8803910337e+02 1.8803910337e+02 0.0000000000e+00 0.0000e+00 -1.0000e+00
        6  1    1    2  501    0 +3.5518719462e+02 +3.5820222679e+01 +9.3985871453e+01 4.0768048225e+02 1.7300000000e+02 0.0000e+00 1.0000e+00
       -6  1    1    2    0  502 -3.5518719462e+02 -3.5820222679e+01 +1.2301175991e+03 1.2925011951e+03 1.7300000000e+02 0.0000e+00 1.0000e+00
<mgrwt>
<rscale>  2 0.39669892E+03</rscale>
<asrwt>0</asrwt>
<pdfrwt beam="1">  1       21 0.23263731E+00 0.39669892E+03</pdfrwt>
<pdfrwt beam="2">  1       21 0.28929094E-01 0.39669892E+03</pdfrwt>
<totfact> 0.81576703E+02</totfact>
</mgrwt>
<rwgt>
<wgt id='1'> +7.0357015e+02 </wgt>
<wgt id='2'> +5.1672053e+02 </wgt>
<wgt id='3'> +5.0481800e+02 </wgt>
<wgt id='4'> +7.0357015e+02 </wgt>
<wgt id='5'> +4.4119460e+02 </wgt>
<wgt id='6'> +5.9916032e+02 </wgt>
<wgt id='7'> +4.4371617e+02 </wgt>
<wgt id='8'> +4.3376776e+02 </wgt>
<wgt id='9'> +5.9916032e+02 </wgt>
<wgt id='10'> +3.8048340e+02 </wgt>
<wgt id='11'> +5.1483194e+02 </wgt>
<wgt id='12'> +3.8425341e+02 </wgt>
<wgt id='13'> +3.7585896e+02 </wgt>
<wgt id='14'> +5.1483194e+02 </wgt>
<wgt id='15'> +3.3081899e+02 </wgt>
<wgt id='16'> +5.9278771e+02 </wgt>
<wgt id='17'> +4.4083696e+02 </wgt>
<wgt id='18'> +4.3107485e+02 </wgt>
<wgt id='19'> +5.9278771e+02 </wgt>
<wgt id='20'> +3.7869139e+02 </wgt>
<wgt id='21'> +3.7855374e+02 </wgt>
<wgt id='22'> +3.7040353e+02 </wgt>
<wgt id='23'> +5.0481800e+02 </wgt>
<wgt id='24'> +3.2658103e+02 </wgt>
<wgt id='25'> +4.3376776e+02 </wgt>
<wgt id='26'> +3.2782344e+02 </wgt>
<wgt id='27'> +3.2095397e+02 </wgt>
<wgt id='28'> +4.3376776e+02 </wgt>
<wgt id='29'> +2.8395248e+02 </wgt>
<wgt id='30'> +5.0619406e+02 </wgt>
<wgt id='31'> +3.8052170e+02 </wgt>
<wgt id='32'> +3.7238476e+02 </wgt>
<wgt id='33'> +5.0619406e+02 </wgt>
<wgt id='34'> +3.2858803e+02 </wgt>
<wgt id='35'> +4.3107484e+02 </wgt>
<wgt id='36'> +3.2676006e+02 </wgt>
<wgt id='37'> +3.1997374e+02 </wgt>
<wgt id='38'> +4.3107485e+02 </wgt>
<wgt id='39'> +2.8337221e+02 </wgt>
<wgt id='40'> +3.7040353e+02 </wgt>
<wgt id='41'> +2.8297068e+02 </wgt>
<wgt id='42'> +2.7725665e+02 </wgt>
<wgt id='43'> +3.7040353e+02 </wgt>
<wgt id='44'> +2.4638370e+02 </wgt>
<wgt id='45'> +5.0481800e+02 </wgt>
<wgt id='46'> +5.2167865e+02 </wgt>
<wgt id='47'> +5.5375114e+02 </wgt>
<wgt id='48'> +5.0951979e+02 </wgt>
<wgt id='49'> +4.5531912e+02 </wgt>
<wgt id='50'> +6.2728704e+02 </wgt>
<wgt id='51'> +4.7311081e+02 </wgt>
<wgt id='52'> +4.4861864e+02 </wgt>
<wgt id='53'> +5.2279255e+02 </wgt>
<wgt id='54'> +5.3827526e+02 </wgt>
<wgt id='55'> +5.7460753e+02 </wgt>
<wgt id='56'> +4.7790705e+02 </wgt>
<wgt id='57'> +5.3476271e+02 </wgt>
<wgt id='58'> +4.3739806e+02 </wgt>
<wgt id='59'> +5.4730795e+02 </wgt>
<wgt id='60'> +4.9157870e+02 </wgt>
<wgt id='61'> +4.1120775e+02 </wgt>
<wgt id='62'> +4.5313888e+02 </wgt>
<wgt id='63'> +5.3615026e+02 </wgt>
<wgt id='64'> +4.9878017e+02 </wgt>
<wgt id='65'> +4.5005885e+02 </wgt>
<wgt id='66'> +5.1902705e+02 </wgt>
<wgt id='67'> +5.0814162e+02 </wgt>
<wgt id='68'> +6.6514518e+02 </wgt>
<wgt id='69'> +5.8377927e+02 </wgt>
<wgt id='70'> +5.7860917e+02 </wgt>
<wgt id='71'> +4.5552335e+02 </wgt>
<wgt id='72'> +4.2688008e+02 </wgt>
<wgt id='73'> +4.4436930e+02 </wgt>
<wgt id='74'> +6.1762521e+02 </wgt>
<wgt id='75'> +5.8424889e+02 </wgt>
<wgt id='76'> +5.1351695e+02 </wgt>
<wgt id='77'> +4.6115896e+02 </wgt>
<wgt id='78'> +4.1988945e+02 </wgt>
<wgt id='79'> +5.5579199e+02 </wgt>
<wgt id='80'> +4.2561383e+02 </wgt>
<wgt id='81'> +5.3346937e+02 </wgt>
<wgt id='82'> +5.0276233e+02 </wgt>
<wgt id='83'> +5.1001771e+02 </wgt>
<wgt id='84'> +4.9002560e+02 </wgt>
<wgt id='85'> +4.4491362e+02 </wgt>
<wgt id='86'> +5.4945782e+02 </wgt>
<wgt id='87'> +4.9027728e+02 </wgt>
<wgt id='88'> +5.1180226e+02 </wgt>
<wgt id='89'> +3.9191793e+02 </wgt>
<wgt id='90'> +4.4661760e+02 </wgt>
<wgt id='91'> +4.1929682e+02 </wgt>
<wgt id='92'> +4.5475854e+02 </wgt>
<wgt id='93'> +5.1851270e+02 </wgt>
<wgt id='94'> +4.5073784e+02 </wgt>
<wgt id='95'> +5.1867403e+02 </wgt>
<wgt id='96'> +5.4414024e+02 </wgt>
<wgt id='97'> +4.4267449e+02 </wgt>
<wgt id='98'> +5.6926894e+02 </wgt>
<wgt id='99'> +4.0157777e+02 </wgt>
<wgt id='100'> +3.5342026e+02 </wgt>
<wgt id='101'> +6.1118661e+02 </wgt>
<wgt id='102'> +5.8855347e+02 </wgt>
<wgt id='103'> +4.6765333e+02 </wgt>
<wgt id='104'> +5.6210974e+02 </wgt>
<wgt id='105'> +5.1037433e+02 </wgt>
<wgt id='106'> +4.8318575e+02 </wgt>
<wgt id='107'> +4.9009045e+02 </wgt>
<wgt id='108'> +4.5907983e+02 </wgt>
<wgt id='109'> +4.8988084e+02 </wgt>
<wgt id='110'> +4.3893064e+02 </wgt>
<wgt id='111'> +4.7900961e+02 </wgt>
<wgt id='112'> +5.2137326e+02 </wgt>
<wgt id='113'> +5.4962621e+02 </wgt>
<wgt id='114'> +5.0755011e+02 </wgt>
<wgt id='115'> +4.6687813e+02 </wgt>
<wgt id='116'> +5.7714938e+02 </wgt>
<wgt id='117'> +5.0177532e+02 </wgt>
<wgt id='118'> +5.2097565e+02 </wgt>
<wgt id='119'> +5.5380073e+02 </wgt>
<wgt id='120'> +5.0019769e+02 </wgt>
<wgt id='121'> +4.7451209e+02 </wgt>
<wgt id='122'> +4.8397200e+02 </wgt>
<wgt id='123'> +4.7406824e+02 </wgt>
<wgt id='124'> +5.8116501e+02 </wgt>
<wgt id='125'> +6.8273054e+02 </wgt>
<wgt id='126'> +4.9470301e+02 </wgt>
<wgt id='127'> +4.7451540e+02 </wgt>
<wgt id='128'> +4.9358452e+02 </wgt>
<wgt id='129'> +5.0662535e+02 </wgt>
<wgt id='130'> +5.2483447e+02 </wgt>
<wgt id='131'> +4.5068043e+02 </wgt>
<wgt id='132'> +5.4387662e+02 </wgt>
<wgt id='133'> +5.6261468e+02 </wgt>
<wgt id='134'> +5.3849145e+02 </wgt>
<wgt id='135'> +4.7698884e+02 </wgt>
<wgt id='136'> +6.0181447e+02 </wgt>
<wgt id='137'> +5.6131926e+02 </wgt>
<wgt id='138'> +5.4426714e+02 </wgt>
<wgt id='139'> +5.2447992e+02 </wgt>
<wgt id='140'> +4.8953714e+02 </wgt>
<wgt id='141'> +6.1200944e+02 </wgt>
<wgt id='142'> +3.0649273e+02 </wgt>
<wgt id='143'> +5.1196603e+02 </wgt>
<wgt id='144'> +4.4035334e+02 </wgt>
<wgt id='145'> +4.5973249e+02 </wgt>
</rwgt>
</event>
<event>
 4      1 +5.0481800e+02 2.48138500e+02 7.54677100e-03 1.11448700e-01
       21 -1    0    0  501  502 +0.0000000000e+00 +0.0000000000e+00 +5.2610253961e+02 5.2610253961e+02 0.0000000000e+00 0.0000e+00 -1.0000e+00
       21 -1    0    0  502  503 -0.0000000000e+00 -0.0000000000e+00 -1.2037257655e+02 1.2037257655e+02 0.0000000000e+00 0.0000e+00 1.0000e+00
        6  1    1    2  501    0 -5.5596463853e+01 -1.6897564394e+02 +2.5668372403e+02 3.5701438237e+02 1.7300000000e+02 0.0000e+00 1.0000e+00
       -6  1    1    2    0  503 +5.5596463853e+01 +1.6897564394e+02 +1.4904623903e+02 2.8946073379e+02 1.7300000000e+02 0.0000e+00 -1.0000e+00
<mgrwt>
<rscale>  2 0.24813854E+03</rscale>
<asrwt>0</asrwt>
<pdfrwt beam="1">  1       21 0.80938851E-01 0.24813854E+03</pdfrwt>
<pdfrwt beam="2">  1       21 0.18518858E-01 0.24813854E+03</pdfrwt>
<totfact> 0.34711848E+04</totfact>
</mgrwt>
<rwgt>
<wgt id='1'> +6.5309702e+02 </wgt>
<wgt id='2'> +5.3390155e+02 </wgt>
<wgt id='3'> +5.0481800e+02 </wgt>
<wgt id='4'> +6.5309702e+02 </wgt>
<wgt id='5'> +5.0227100e+02 </wgt>
<wgt id='6'> +6.1109922e+02 </wgt>
<wgt id='7'> +4.9498946e+02 </wgt>
<wgt id='8'> +4.6813043e+02 </wgt>
<wgt id='9'> +6.1109922e+02 </wgt>
<wgt id='10'> +4.6577327e+02 </wgt>
<wgt id='11'> +5.6668768e+02 </wgt>
<wgt id='12'> +4.5930552e+02 </wgt>
<wgt id='13'> +4.3449485e+02 </wgt>
<wgt id='14'> +5.6668768e+02 </wgt>
<wgt id='15'> +4.3231780e+02 </wgt>
<wgt id='16'> +5.3951162e+02 </wgt>
<wgt id='17'> +4.5049877e+02 </wgt>
<wgt id='18'> +4.2724824e+02 </wgt>
<wgt id='19'> +5.3951162e+02 </wgt>
<wgt id='20'> +4.2521171e+02 </wgt>
<wgt id='21'> +4.1766529e+02 </wgt>
<wgt id='22'> +3.9619805e+02 </wgt>
<wgt id='23'> +5.0481800e+02 </wgt>
<wgt id='24'> +3.9431353e+02 </wgt>
<wgt id='25'> +4.6813043e+02 </wgt>
<wgt id='26'> +3.8755567e+02 </wgt>
<wgt id='27'> +3.6773087e+02 </wgt>
<wgt id='28'> +4.6813043e+02 </wgt>
<wgt id='29'> +3.6599085e+02 </wgt>
<wgt id='30'> +4.5661088e+02 </wgt>
<wgt id='31'> +3.8517001e+02 </wgt>
<wgt id='32'> +3.6627442e+02 </wgt>
<wgt id='33'> +4.5661088e+02 </wgt>
<wgt id='34'> +3.6461654e+02 </wgt>
<wgt id='35'> +4.2724824e+02 </wgt>
<wgt id='36'> +3.5709786e+02 </wgt>
<wgt id='37'> +3.3965549e+02 </wgt>
<wgt id='38'> +4.2724824e+02 </wgt>
<wgt id='39'> +3.3812153e+02 </wgt>
<wgt id='40'> +3.9619805e+02 </wgt>
<wgt id='41'> +3.3135456e+02 </wgt>
<wgt id='42'> +3.1525094e+02 </wgt>
<wgt id='43'> +3.9619805e+02 </wgt>
<wgt id='44'> +3.1383500e+02 </wgt>
<wgt id='45'> +5.0481800e+02 </wgt>
<wgt id='46'> +5.1285093e+02 </wgt>
<wgt id='47'> +5.2286318e+02 </wgt>
<wgt id='48'> +5.0919448e+02 </wgt>
<wgt id='49'> +4.9926051e+02 </wgt>
<wgt id='50'> +6.0056740e+02 </wgt>
<wgt id='51'> +4.9358230e+02 </wgt>
<wgt id='52'> +5.0307991e+02 </wgt>
<wgt id='53'> +5.0278194e+02 </wgt>
<wgt id='54'> +5.1078162e+02 </wgt>
<wgt id='55'> +4.6689268e+02 </wgt>
<wgt id='56'> +4.6327832e+02 </wgt>
<wgt id='57'> +5.0022214e+02 </wgt>
<wgt id='58'> +4.9797871e+02 </wgt>
<wgt id='59'> +5.1398847e+02 </wgt>
<wgt id='60'> +4.9664826e+02 </wgt>
<wgt id='61'> +4.5837562e+02 </wgt>
<wgt id='62'> +4.9671622e+02 </wgt>
<wgt id='63'> +5.0635519e+02 </wgt>
<wgt id='64'> +4.9546478e+02 </wgt>
<wgt id='65'> +5.7475889e+02 </wgt>
<wgt id='66'> +4.9557299e+02 </wgt>
<wgt id='67'> +5.0848566e+02 </wgt>
<wgt id='68'> +5.5241848e+02 </wgt>
<wgt id='69'> +5.0257525e+02 </wgt>
<wgt id='70'> +4.9775685e+02 </wgt>
<wgt id='71'> +5.1134372e+02 </wgt>
<wgt id='72'> +4.8396051e+02 </wgt>
<wgt id='73'> +4.9161017e+02 </wgt>
<wgt id='74'> +5.3001921e+02 </wgt>
<wgt id='75'> +5.1727852e+02 </wgt>
<wgt id='76'> +4.9469972e+02 </wgt>
<wgt id='77'> +4.9226894e+02 </wgt>
<wgt id='78'> +4.9007084e+02 </wgt>
<wgt id='79'> +4.9428407e+02 </wgt>
<wgt id='80'> +4.9375691e+02 </wgt>
<wgt id='81'> +4.9512769e+02 </wgt>
<wgt id='82'> +5.0522242e+02 </wgt>
<wgt id='83'> +5.1393881e+02 </wgt>
<wgt id='84'> +5.4787013e+02 </wgt>
<wgt id='85'> +5.2057528e+02 </wgt>
<wgt id='86'> +5.0640063e+02 </wgt>
<wgt id='87'> +5.0725879e+02 </wgt>
<wgt id='88'> +5.1047610e+02 </wgt>
<wgt id='89'> +5.1315291e+02 </wgt>
<wgt id='90'> +5.1281197e+02 </wgt>
<wgt id='91'> +5.2416861e+02 </wgt>
<wgt id='92'> +4.5986953e+02 </wgt>
<wgt id='93'> +5.0087887e+02 </wgt>
<wgt id='94'> +4.9424725e+02 </wgt>
<wgt id='95'> +4.9184872e+02 </wgt>
<wgt id='96'> +5.4474762e+02 </wgt>
<wgt id='97'> +5.0349834e+02 </wgt>
<wgt id='98'> +4.8978695e+02 </wgt>
<wgt id='99'> +4.8222510e+02 </wgt>
<wgt id='100'> +4.7971772e+02 </wgt>
<wgt id='101'> +5.4897650e+02 </wgt>
<wgt id='102'> +5.1038133e+02 </wgt>
<wgt id='103'> +5.4552890e+02 </wgt>
<wgt id='104'> +5.0884571e+02 </wgt>
<wgt id='105'> +5.2095052e+02 </wgt>
<wgt id='106'> +4.6035417e+02 </wgt>
<wgt id='107'> +4.8590444e+02 </wgt>
<wgt id='108'> +4.4689256e+02 </wgt>
<wgt id='109'> +4.7369808e+02 </wgt>
<wgt id='110'> +5.0118744e+02 </wgt>
<wgt id='111'> +4.9053134e+02 </wgt>
<wgt id='112'> +4.7878524e+02 </wgt>
<wgt id='113'> +4.6601411e+02 </wgt>
<wgt id='114'> +4.9568004e+02 </wgt>
<wgt id='115'> +4.8780986e+02 </wgt>
<wgt id='116'> +5.1763389e+02 </wgt>
<wgt id='117'> +5.0353247e+02 </wgt>
<wgt id='118'> +5.2629186e+02 </wgt>
<wgt id='119'> +4.8944025e+02 </wgt>
<wgt id='120'> +4.9547861e+02 </wgt>
<wgt id='121'> +4.9225871e+02 </wgt>
<wgt id='122'> +4.9878603e+02 </wgt>
<wgt id='123'> +5.1004215e+02 </wgt>
<wgt id='124'> +5.5256036e+02 </wgt>
<wgt id='125'> +5.5625248e+02 </wgt>
<wgt id='126'> +5.2269491e+02 </wgt>
<wgt id='127'> +5.1892110e+02 </wgt>
<wgt id='128'> +4.6272672e+02 </wgt>
<wgt id='129'> +5.6737656e+02 </wgt>
<wgt id='130'> +5.0381841e+02 </wgt>
<wgt id='131'> +5.3062162e+02 </wgt>
<wgt id='132'> +5.1831795e+02 </wgt>
<wgt id='133'> +5.1346202e+02 </wgt>
<wgt id='134'> +4.8520274e+02 </wgt>
<wgt id='135'> +5.1360047e+02 </wgt>
<wgt id='136'> +5.0691117e+02 </wgt>
<wgt id='137'> +4.8230115e+02 </wgt>
<wgt id='138'> +4.7169893e+02 </wgt>
<wgt id='139'> +5.1827845e+02 </wgt>
<wgt id='140'> +5.2504869e+02 </wgt>
<wgt id='141'> +5.1060323e+02 </wgt>
<wgt id='142'> +4.8442543e+02 </wgt>
<wgt id='143'> +5.0952295e+02 </wgt>
<wgt id='144'> +4.9680092e+02 </wgt>
<wgt id='145'> +5.0336014e+02 </wgt>
</rwgt>
</event>
<event>
 4      1 +5.0481800e+02 2.01931200e+02 7.54677100e-03 1.14812000e-01
       21 -1    0    0  501  502 +0.0000000000e+00 +0.0000000000e+00 +2.0112018934e+01 2.0112018934e+01 0.0000000000e+00 0.0000e+00 -1.0000e+00
       21 -1    0    0  502  503 -0.0000000000e+00 -0.0000000000e+00 -2.0611538888e+03 2.0611538888e+03 0.0000000000e+00 0.0000e+00 -1.0000e+00
        6  1    1    2  501    0 +7.1412319362e+01 +7.5812144821e+01 -1.1535829884e+03 1.1711233546e+03 1.7300000000e+02 0.0000e+00 -1.0000e+00
       -6  1    1    2    0  503 -7.1412319362e+01 -7.5812144821e+01 -8.8745888153e+02 9.1014255315e+02 1.7300000000e+02 0.0000e+00 -1.0000e+00
<mgrwt>
<rscale>  2 0.20193118E+03</rscale>
<asrwt>0</asrwt>
<pdfrwt beam="1">  1       21 0.30941580E-02 0.20193118E+03</pdfrwt>
<pdfrwt beam="2">  1       21 0.31710047E+00 0.20193118E+03</pdfrwt>
<totfact> 0.16196142E+04</totfact>
</mgrwt>
<rwgt>
<wgt id='1'> +7.0738631e+02 </wgt>
<wgt id='2'> +6.9119267e+02 </wgt>
<wgt id='3'> +5.0481800e+02 </wgt>
<wgt id='4'> +7.0738631e+02 </wgt>
<wgt id='5'> +5.0287446e+02 </wgt>
<wgt id='6'> +6.1796886e+02 </wgt>
<wgt id='7'> +6.0335371e+02 </wgt>
<wgt id='8'> +4.3791000e+02 </wgt>
<wgt id='9'> +6.1796887e+02 </wgt>
<wgt id='10'> +4.3626044e+02 </wgt>
<wgt id='11'> +5.3606398e+02 </wgt>
<wgt id='12'> +5.2365680e+02 </wgt>
<wgt id='13'> +3.8292743e+02 </wgt>
<wgt id='14'> +5.3606398e+02 </wgt>
<wgt id='15'> +3.8152119e+02 </wgt>
<wgt id='16'> +5.7786300e+02 </wgt>
<wgt id='17'> +5.6608165e+02 </wgt>
<wgt id='18'> +4.2550821e+02 </wgt>
<wgt id='19'> +5.7786300e+02 </wgt>
<wgt id='20'> +4.2394700e+02 </wgt>
<wgt id='21'> +4.9414219e+02 </wgt>
<wgt id='22'> +3.6911184e+02 </wgt>
<wgt id='23'> +5.0481800e+02 </wgt>
<wgt id='24'> +3.6778822e+02 </wgt>
<wgt id='25'> +4.3791000e+02 </wgt>
<wgt id='26'> +4.2887102e+02 </wgt>
<wgt id='27'> +3.2276734e+02 </wgt>
<wgt id='28'> +4.3791000e+02 </wgt>
<wgt id='29'> +3.2164044e+02 </wgt>
<wgt id='30'> +4.8707741e+02 </wgt>
<wgt id='31'> +4.7759869e+02 </wgt>
<wgt id='32'> +3.6346789e+02 </wgt>
<wgt id='33'> +4.8707742e+02 </wgt>
<wgt id='34'> +3.6218812e+02 </wgt>
<wgt id='35'> +4.2550820e+02 </wgt>
<wgt id='36'> +4.1690393e+02 </wgt>
<wgt id='37'> +3.1529427e+02 </wgt>
<wgt id='38'> +4.2550821e+02 </wgt>
<wgt id='39'> +3.1421033e+02 </wgt>
<wgt id='40'> +3.6911183e+02 </wgt>
<wgt id='41'> +3.6183515e+02 </wgt>
<wgt id='42'> +2.7570694e+02 </wgt>
<wgt id='43'> +3.6911184e+02 </wgt>
<wgt id='44'> +2.7478517e+02 </wgt>
<wgt id='45'> +5.0481800e+02 </wgt>
<wgt id='46'> +5.1005457e+02 </wgt>
<wgt id='47'> +6.0086851e+02 </wgt>
<wgt id='48'> +5.0636037e+02 </wgt>
<wgt id='49'> +4.3895671e+02 </wgt>
<wgt id='50'> +6.0039467e+02 </wgt>
<wgt id='51'> +4.8214321e+02 </wgt>
<wgt id='52'> +4.0425529e+02 </wgt>
<wgt id='53'> +5.6519170e+02 </wgt>
<wgt id='54'> +5.3653385e+02 </wgt>
<wgt id='55'> +6.4462730e+02 </wgt>
<wgt id='56'> +4.9486383e+02 </wgt>
<wgt id='57'> +5.5599603e+02 </wgt>
<wgt id='58'> +4.1792571e+02 </wgt>
<wgt id='59'> +5.4944403e+02 </wgt>
<wgt id='60'> +4.8694768e+02 </wgt>
<wgt id='61'> +3.8081744e+02 </wgt>
<wgt id='62'> +4.2824907e+02 </wgt>
<wgt id='63'> +5.3982214e+02 </wgt>
<wgt id='64'> +5.0926970e+02 </wgt>
<wgt id='65'> +3.7138624e+02 </wgt>
<wgt id='66'> +5.2361374e+02 </wgt>
<wgt id='67'> +4.9070291e+02 </wgt>
<wgt id='68'> +7.6184352e+02 </wgt>
<wgt id='69'> +6.0945944e+02 </wgt>
<wgt id='70'> +6.8281754e+02 </wgt>
<wgt id='71'> +4.2329506e+02 </wgt>
<wgt id='72'> +4.0544462e+02 </wgt>
<wgt id='73'> +4.3174793e+02 </wgt>
<wgt id='74'> +6.8443742e+02 </wgt>
<wgt id='75'> +6.5092605e+02 </wgt>
<wgt id='76'> +5.1175718e+02 </wgt>
<wgt id='77'> +4.2909171e+02 </wgt>
<wgt id='78'> +4.0245876e+02 </wgt>
<wgt id='79'> +5.9082563e+02 </wgt>
<wgt id='80'> +3.7507529e+02 </wgt>
<wgt id='81'> +5.6540579e+02 </wgt>
<wgt id='82'> +4.9460287e+02 </wgt>
<wgt id='83'> +5.0255461e+02 </wgt>
<wgt id='84'> +4.2563507e+02 </wgt>
<wgt id='85'> +4.1141222e+02 </wgt>
<wgt id='86'> +5.6636328e+02 </wgt>
<wgt id='87'> +4.6850496e+02 </wgt>
<wgt id='88'> +5.4141325e+02 </wgt>
<wgt id='89'> +3.0427919e+02 </wgt>
<wgt id='90'> +3.9963919e+02 </wgt>
<wgt id='91'> +3.6394807e+02 </wgt>
<wgt id='92'> +4.7541487e+02 </wgt>
<wgt id='93'> +5.3953343e+02 </wgt>
<wgt id='94'> +4.2985894e+02 </wgt>
<wgt id='95'> +5.2362150e+02 </wgt>
<wgt id='96'> +4.9790926e+02 </wgt>
<wgt id='97'> +4.1518195e+02 </wgt>
<wgt id='98'> +6.3601590e+02 </wgt>
<wgt id='99'> +3.7176852e+02 </wgt>
<wgt id='100'> +3.1171477e+02 </wgt>
<wgt id='101'> +6.1980494e+02 </wgt>
<wgt id='102'> +6.0894437e+02 </wgt>
<wgt id='103'> +4.1549623e+02 </wgt>
<wgt id='104'> +5.7415944e+02 </wgt>
<wgt id='105'> +5.1581408e+02 </wgt>
<wgt id='106'> +5.2547887e+02 </wgt>
<wgt id='107'> +5.3312314e+02 </wgt>
<wgt id='108'> +4.6592678e+02 </wgt>
<wgt id='109'> +5.1311689e+02 </wgt>
<wgt id='110'> +3.9073631e+02 </wgt>
<wgt id='111'> +4.6989431e+02 </wgt>
<wgt id='112'> +5.2465080e+02 </wgt>
<wgt id='113'> +6.4068928e+02 </wgt>
<wgt id='114'> +4.6446857e+02 </wgt>
<wgt id='115'> +4.8506085e+02 </wgt>
<wgt id='116'> +5.9007451e+02 </wgt>
<wgt id='117'> +5.2334023e+02 </wgt>
<wgt id='118'> +4.9739657e+02 </wgt>
<wgt id='119'> +5.5171964e+02 </wgt>
<wgt id='120'> +4.8934716e+02 </wgt>
<wgt id='121'> +4.5472664e+02 </wgt>
<wgt id='122'> +4.6999579e+02 </wgt>
<wgt id='123'> +4.3841705e+02 </wgt>
<wgt id='124'> +5.6372262e+02 </wgt>
<wgt id='125'> +7.5387777e+02 </wgt>
<wgt id='126'> +4.7250693e+02 </wgt>
<wgt id='127'> +4.4761901e+02 </wgt>
<wgt id='128'> +5.0816793e+02 </wgt>
<wgt id='129'> +4.6353186e+02 </wgt>
<wgt id='130'> +4.7961022e+02 </wgt>
<wgt id='131'> +4.1806676e+02 </wgt>
<wgt id='132'> +5.3457993e+02 </wgt>
<wgt id='133'> +5.6740359e+02 </wgt>
<wgt id='134'> +5.8200251e+02 </wgt>
<wgt id='135'> +4.6776688e+02 </wgt>
<wgt id='136'> +6.3587820e+02 </wgt>
<wgt id='137'> +6.1780117e+02 </wgt>
<wgt id='138'> +5.7806951e+02 </wgt>
<wgt id='139'> +5.3216383e+02 </wgt>
<wgt id='140'> +4.7839325e+02 </wgt>
<wgt id='141'> +6.8987874e+02 </wgt>
<wgt id='142'> +2.1326828e+02 </wgt>
<wgt id='143'> +5.1225254e+02 </wgt>
<wgt id='144'> +4.2464946e+02 </wgt>
<wgt id='145'> +4.4954861e+02 </wgt>
</rwgt>
</event>
<event>
 4      1 +5.0481800e+02 1.77722100e+02 7.54677100e-03 1.17002600e-01
       21 -1    0    0  503  502 +0.0000000000e+00 +0.0000000000e+00 +3.8345857263e+01 3.8345857263e+01 0.0000000000e+00 0.0000e+00 -1.0000e+00
       21 -1    0    0  501  503 -0.0000000000e+00 -0.0000000000e+00 -1.8104521991e+03 1.8104521991e+03 0.0000000000e+00 0.0000e+00 -1.0000e+00
        6  1    1    2  501    0 -2.8094573933e+01 +2.9442147442e+01 -1.5685048981e+03 1.5785413395e+03 1.7300000000e+02 0.0000e+00 -1.0000e+00
       -6  1    1    2    0  502 +2.8094573933e+01 -2.9442147442e+01 -2.0360144381e+02 2.7025671694e+02 1.7300000000e+02 0.0000e+00 -1.0000e+00
<mgrwt>
<rscale>  2 0.17772210E+03</rscale>
<asrwt>0</asrwt>
<pdfrwt beam="1">  1       21 0.58993651E-02 0.17772210E+03</pdfrwt>
<pdfrwt beam="2">  1       21 0.27853099E+00 0.17772210E+03</pdfrwt>
<totfact> 0.93584898E+03</totfact>
</mgrwt>
<rwgt>
<wgt id='1'> +7.0768731e+02 </wgt>
<wgt id='2'> +9.8872668e+02 </wgt>
<wgt id='3'> +5.0481800e+02 </wgt>
<wgt id='4'> +7.0768731e+02 </wgt>
<wgt id='5'> +4.2122634e+02 </wgt>
<wgt id='6'> +6.2181921e+02 </wgt>
<wgt id='7'> +8.6767742e+02 </wgt>
<wgt id='8'> +4.3911703e+02 </wgt>
<wgt id='9'> +6.2181921e+02 </wgt>
<wgt id='10'> +3.6758219e+02 </wgt>
<wgt id='11'> +5.4089078e+02 </wgt>
<wgt id='12'> +7.6198115e+02 </wgt>
<wgt id='13'> +3.8435284e+02 </wgt>
<wgt id='14'> +5.4089078e+02 </wgt>
<wgt id='15'> +3.2301301e+02 </wgt>
<wgt id='16'> +5.7452920e+02 </wgt>
<wgt id='17'> +7.8423254e+02 </wgt>
<wgt id='18'> +4.2397587e+02 </wgt>
<wgt id='19'> +5.7452920e+02 </wgt>
<wgt id='20'> +3.5692631e+02 </wgt>
<wgt id='21'> +6.8821938e+02 </wgt>
<wgt id='22'> +3.6879632e+02 </wgt>
<wgt id='23'> +5.0481800e+02 </wgt>
<wgt id='24'> +3.1147092e+02 </wgt>
<wgt id='25'> +4.3911703e+02 </wgt>
<wgt id='26'> +6.0438383e+02 </wgt>
<wgt id='27'> +3.2280214e+02 </wgt>
<wgt id='28'> +4.3911703e+02 </wgt>
<wgt id='29'> +2.7370520e+02 </wgt>
<wgt id='30'> +4.8252343e+02 </wgt>
<wgt id='31'> +6.3831924e+02 </wgt>
<wgt id='32'> +3.6132000e+02 </wgt>
<wgt id='33'> +4.8252343e+02 </wgt>
<wgt id='34'> +3.0630046e+02 </wgt>
<wgt id='35'> +4.2397587e+02 </wgt>
<wgt id='36'> +5.6017016e+02 </wgt>
<wgt id='37'> +3.1429498e+02 </wgt>
<wgt id='38'> +4.2397587e+02 </wgt>
<wgt id='39'> +2.6729239e+02 </wgt>
<wgt id='40'> +3.6879632e+02 </wgt>
<wgt id='41'> +4.9193294e+02 </wgt>
<wgt id='42'> +2.7509789e+02 </wgt>
<wgt id='43'> +3.6879632e+02 </wgt>
<wgt id='44'> +2.3488330e+02 </wgt>
<wgt id='45'> +5.0481800e+02 </wgt>
<wgt id='46'> +5.1232832e+02 </wgt>
<wgt id='47'> +5.6985659e+02 </wgt>
<wgt id='48'> +5.0478029e+02 </wgt>
<wgt id='49'> +4.4391732e+02 </wgt>
<wgt id='50'> +5.9570591e+02 </wgt>
<wgt id='51'> +4.7156288e+02 </wgt>
<wgt id='52'> +4.2371202e+02 </wgt>
<wgt id='53'> +5.4329865e+02 </wgt>
<wgt id='54'> +5.4118788e+02 </wgt>
<wgt id='55'> +6.2310081e+02 </wgt>
<wgt id='56'> +4.9401431e+02 </wgt>
<wgt id='57'> +5.4765655e+02 </wgt>
<wgt id='58'> +4.2903938e+02 </wgt>
<wgt id='59'> +5.4724271e+02 </wgt>
<wgt id='60'> +4.8646899e+02 </wgt>
<wgt id='61'> +3.9450229e+02 </wgt>
<wgt id='62'> +4.3633911e+02 </wgt>
<wgt id='63'> +5.4123314e+02 </wgt>
<wgt id='64'> +5.0850035e+02 </wgt>
<wgt id='65'> +3.9886526e+02 </wgt>
<wgt id='66'> +5.2386747e+02 </wgt>
<wgt id='67'> +5.0360733e+02 </wgt>
<wgt id='68'> +7.0698317e+02 </wgt>
<wgt id='69'> +5.9641175e+02 </wgt>
<wgt id='70'> +6.2929231e+02 </wgt>
<wgt id='71'> +4.3466140e+02 </wgt>
<wgt id='72'> +4.2217103e+02 </wgt>
<wgt id='73'> +4.4046817e+02 </wgt>
<wgt id='74'> +6.4652836e+02 </wgt>
<wgt id='75'> +6.1786569e+02 </wgt>
<wgt id='76'> +5.1975552e+02 </wgt>
<wgt id='77'> +4.4278904e+02 </wgt>
<wgt id='78'> +4.0774821e+02 </wgt>
<wgt id='79'> +5.7783288e+02 </wgt>
<wgt id='80'> +4.0172317e+02 </wgt>
<wgt id='81'> +5.5591324e+02 </wgt>
<wgt id='82'> +5.0340069e+02 </wgt>
<wgt id='83'> +5.0205797e+02 </wgt>
<wgt id='84'> +4.5438715e+02 </wgt>
<wgt id='85'> +4.2029850e+02 </wgt>
<wgt id='86'> +5.6037478e+02 </wgt>
<wgt id='87'> +4.7869602e+02 </wgt>
<wgt id='88'> +5.1770845e+02 </wgt>
<wgt id='89'> +3.4023158e+02 </wgt>
<wgt id='90'> +4.1816255e+02 </wgt>
<wgt id='91'> +3.8446597e+02 </wgt>
<wgt id='92'> +4.7752293e+02 </wgt>
<wgt id='93'> +5.2501229e+02 </wgt>
<wgt id='94'> +4.4486123e+02 </wgt>
<wgt id='95'> +5.2768799e+02 </wgt>
<wgt id='96'> +5.2073458e+02 </wgt>
<wgt id='97'> +4.2632870e+02 </wgt>
<wgt id='98'> +6.0444349e+02 </wgt>
<wgt id='99'> +3.8182850e+02 </wgt>
<wgt id='100'> +3.2841553e+02 </wgt>
<wgt id='101'> +6.0679513e+02 </wgt>
<wgt id='102'> +5.9328152e+02 </wgt>
<wgt id='103'> +4.3264150e+02 </wgt>
<wgt id='104'> +5.6874963e+02 </wgt>
<wgt id='105'> +5.1477380e+02 </wgt>
<wgt id='106'> +5.1561016e+02 </wgt>
<wgt id='107'> +5.1878033e+02 </wgt>
<wgt id='108'> +4.7374912e+02 </wgt>
<wgt id='109'> +5.0624420e+02 </wgt>
<wgt id='110'> +4.1744005e+02 </wgt>
<wgt id='111'> +4.7679297e+02 </wgt>
<wgt id='112'> +5.3241321e+02 </wgt>
<wgt id='113'> +6.0445593e+02 </wgt>
<wgt id='114'> +5.0794890e+02 </wgt>
<wgt id='115'> +4.7594938e+02 </wgt>
<wgt id='116'> +5.7791743e+02 </wgt>
<wgt id='117'> +5.1116886e+02 </wgt>
<wgt id='118'> +5.0164605e+02 </wgt>
<wgt id='119'> +5.6918316e+02 </wgt>
<wgt id='120'> +4.9949936e+02 </wgt>
<wgt id='121'> +4.6651650e+02 </wgt>
<wgt id='122'> +4.7941595e+02 </wgt>
<wgt id='123'> +4.5151344e+02 </wgt>
<wgt id='124'> +5.6629921e+02 </wgt>
<wgt id='125'> +7.1342334e+02 </wgt>
<wgt id='126'> +4.7795473e+02 </wgt>
<wgt id='127'> +4.5428269e+02 </wgt>
<wgt id='128'> +5.0686705e+02 </wgt>
<wgt id='129'> +4.7853327e+02 </wgt>
<wgt id='130'> +5.1129641e+02 </wgt>
<wgt id='131'> +4.2779769e+02 </wgt>
<wgt id='132'> +5.4023175e+02 </wgt>
<wgt id='133'> +5.6585704e+02 </wgt>
<wgt id='134'> +5.6158354e+02 </wgt>
<wgt id='135'> +4.6803855e+02 </wgt>
<wgt id='136'> +6.2355547e+02 </wgt>
<wgt id='137'> +5.9398483e+02 </wgt>
<wgt id='138'> +5.5294495e+02 </wgt>
<wgt id='139'> +5.2481068e+02 </wgt>
<wgt id='140'> +4.8495975e+02 </wgt>
<wgt id='141'> +6.5141036e+02 </wgt>
<wgt id='142'> +2.4761860e+02 </wgt>
<wgt id='143'> +5.0968339e+02 </wgt>
<wgt id='144'> +4.3230998e+02 </wgt>
<wgt id='145'> +4.5073022e+02 </wgt>
</rwgt>
</event>
<event>
 4      1 +5.0481800e+02 2.18766400e+02 7.54677100e-03 1.13480600e-01
       21 -1    0    0  501  502 +0.0000000000e+00 +0.0000000000e+00 +5.9843000396e+01 5.9843000396e+01 0.0000000000e+00 0.0000e+00 1.0000e+00
       21 -1    0    0  502  503 -0.0000000000e+00 -0.0000000000e+00 -1.0302265811e+03 1.0302265811e+03 0.0000000000e+00 0.0000e+00 -1.0000e+00
        6  1    1    2  501    0 +9.0910717095e+01 +9.8310696772e+01 -2.2739228340e+02 3.1554080898e+02 1.7300000000e+02 0.0000e+00 1.0000e+00
       -6  1    1    2    0  503 -9.0910717095e+01 -9.8310696772e+01 -7.4299129729e+02 7.7452877250e+02 1.7300000000e+02 0.0000e+00 -1.0000e+00
<mgrwt>
<rscale>  2 0.21876643E+03</rscale>
<asrwt>0</asrwt>
<pdfrwt beam="1">  1       21 0.92066162E-02 0.21876643E+03</pdfrwt>
<pdfrwt beam="2">  1       21 0.15849638E+00 0.21876643E+03</pdfrwt>
<totfact> 0.23828243E+04</totfact>
</mgrwt>
<rwgt>
<wgt id='1'> +6.6687585e+02 </wgt>
<wgt id='2'> +5.8812158e+02 </wgt>
<wgt id='3'> +5.0481800e+02 </wgt>
<wgt id='4'> +6.6687585e+02 </wgt>
<wgt id='5'> +4.8067913e+02 </wgt>
<wgt id='6'> +6.1519599e+02 </wgt>
<wgt id='7'> +5.3806920e+02 </wgt>
<wgt id='8'> +4.6027223e+02 </wgt>
<wgt id='9'> +6.1519599e+02 </wgt>
<wgt id='10'> +4.3842217e+02 </wgt>
<wgt id='11'> +5.6091033e+02 </wgt>
<wgt id='12'> +4.9098636e+02 </wgt>
<wgt id='13'> +4.2047083e+02 </wgt>
<wgt id='14'> +5.6091033e+02 </wgt>
<wgt id='15'> +4.0067565e+02 </wgt>
<wgt id='16'> +5.4722550e+02 </wgt>
<wgt id='17'> +4.9036506e+02 </wgt>
<wgt id='18'> +4.2618704e+02 </wgt>
<wgt id='19'> +5.4722550e+02 </wgt>
<wgt id='20'> +4.0682373e+02 </wgt>
<wgt id='21'> +4.4863230e+02 </wgt>
<wgt id='22'> +3.8857976e+02 </wgt>
<wgt id='23'> +5.0481800e+02 </wgt>
<wgt id='24'> +3.7105947e+02 </wgt>
<wgt id='25'> +4.6027223e+02 </wgt>
<wgt id='26'> +4.0937549e+02 </wgt>
<wgt id='27'> +3.5497786e+02 </wgt>
<wgt id='28'> +4.6027223e+02 </wgt>
<wgt id='29'> +3.3911263e+02 </wgt>
<wgt id='30'> +4.6198910e+02 </wgt>
<wgt id='31'> +4.1649866e+02 </wgt>
<wgt id='32'> +3.6456649e+02 </wgt>
<wgt id='33'> +4.6198910e+02 </wgt>
<wgt id='34'> +3.4876861e+02 </wgt>
<wgt id='35'> +4.2618704e+02 </wgt>
<wgt id='36'> +3.8105233e+02 </wgt>
<wgt id='37'> +3.3239669e+02 </wgt>
<wgt id='38'> +4.2618704e+02 </wgt>
<wgt id='39'> +3.1810803e+02 </wgt>
<wgt id='40'> +3.8857976e+02 </wgt>
<wgt id='41'> +3.4770899e+02 </wgt>
<wgt id='42'> +3.0365315e+02 </wgt>
<wgt id='43'> +3.8857976e+02 </wgt>
<wgt id='44'> +2.9072011e+02 </wgt>
<wgt id='45'> +5.0481800e+02 </wgt>
<wgt id='46'> +5.1904787e+02 </wgt>
<wgt id='47'> +5.1878255e+02 </wgt>
<wgt id='48'> +5.0533330e+02 </wgt>
<wgt id='49'> +4.7820778e+02 </wgt>
<wgt id='50'> +5.9681591e+02 </wgt>
<wgt id='51'> +4.8188647e+02 </wgt>
<wgt id='52'> +4.8843965e+02 </wgt>
<wgt id='53'> +5.0016073e+02 </wgt>
<wgt id='54'> +5.2767235e+02 </wgt>
<wgt id='55'> +5.2947954e+02 </wgt>
<wgt id='56'> +4.7189926e+02 </wgt>
<wgt id='57'> +5.2710609e+02 </wgt>
<wgt id='58'> +4.7213631e+02 </wgt>
<wgt id='59'> +5.4241113e+02 </wgt>
<wgt id='60'> +5.0746197e+02 </wgt>
<wgt id='61'> +4.5169568e+02 </wgt>
<wgt id='62'> +4.7857529e+02 </wgt>
<wgt id='63'> +5.2120806e+02 </wgt>
<wgt id='64'> +5.0169285e+02 </wgt>
<wgt id='65'> +5.0285783e+02 </wgt>
<wgt id='66'> +5.0403602e+02 </wgt>
<wgt id='67'> +5.0706523e+02 </wgt>
<wgt id='68'> +5.8558674e+02 </wgt>
<wgt id='69'> +5.2596658e+02 </wgt>
<wgt id='70'> +5.2020547e+02 </wgt>
<wgt id='71'> +4.8827094e+02 </wgt>
<wgt id='72'> +4.7572971e+02 </wgt>
<wgt id='73'> +4.6895518e+02 </wgt>
<wgt id='74'> +5.5766930e+02 </wgt>
<wgt id='75'> +5.3088950e+02 </wgt>
<wgt id='76'> +5.1237429e+02 </wgt>
<wgt id='77'> +4.8767574e+02 </wgt>
<wgt id='78'> +4.5382115e+02 </wgt>
<wgt id='79'> +5.2206568e+02 </wgt>
<wgt id='80'> +4.6687898e+02 </wgt>
<wgt id='81'> +5.0910430e+02 </wgt>
<wgt id='82'> +4.8886188e+02 </wgt>
<wgt id='83'> +5.0159242e+02 </wgt>
<wgt id='84'> +5.1324790e+02 </wgt>
<wgt id='85'> +4.7976991e+02 </wgt>
<wgt id='86'> +5.1870089e+02 </wgt>
<wgt id='87'> +5.0367829e+02 </wgt>
<wgt id='88'> +4.9629003e+02 </wgt>
<wgt id='89'> +4.6810644e+02 </wgt>
<wgt id='90'> +4.9287406e+02 </wgt>
<wgt id='91'> +4.7269395e+02 </wgt>
<wgt id='92'> +4.6888689e+02 </wgt>
<wgt id='93'> +5.0665183e+02 </wgt>
<wgt id='94'> +4.7376798e+02 </wgt>
<wgt id='95'> +5.2133889e+02 </wgt>
<wgt id='96'> +5.3051243e+02 </wgt>
<wgt id='97'> +4.7507821e+02 </wgt>
<wgt id='98'> +5.2045270e+02 </wgt>
<wgt id='99'> +4.4744737e+02 </wgt>
<wgt id='100'> +4.2049805e+02 </wgt>
<wgt id='101'> +5.7764339e+02 </wgt>
<wgt id='102'> +5.4973497e+02 </wgt>
<wgt id='103'> +5.0928074e+02 </wgt>
<wgt id='104'> +5.2628031e+02 </wgt>
<wgt id='105'> +5.1922715e+02 </wgt>
<wgt id='106'> +4.7751120e+02 </wgt>
<wgt id='107'> +4.8140462e+02 </wgt>
<wgt id='108'> +4.6098804e+02 </wgt>
<wgt id='109'> +4.9096171e+02 </wgt>
<wgt id='110'> +4.8088856e+02 </wgt>
<wgt id='111'> +4.9257425e+02 </wgt>
<wgt id='112'> +5.0618414e+02 </wgt>
<wgt id='113'> +5.0099967e+02 </wgt>
<wgt id='114'> +5.1186678e+02 </wgt>
<wgt id='115'> +4.6680299e+02 </wgt>
<wgt id='116'> +5.4122045e+02 </wgt>
<wgt id='117'> +4.9389716e+02 </wgt>
<wgt id='118'> +5.2623744e+02 </wgt>
<wgt id='119'> +5.2729436e+02 </wgt>
<wgt id='120'> +5.0195882e+02 </wgt>
<wgt id='121'> +5.0070783e+02 </wgt>
<wgt id='122'> +4.9738029e+02 </wgt>
<wgt id='123'> +4.9399434e+02 </wgt>
<wgt id='124'> +5.6742986e+02 </wgt>
<wgt id='125'> +6.0209166e+02 </wgt>
<wgt id='126'> +5.0442386e+02 </wgt>
<wgt id='127'> +4.9844352e+02 </wgt>
<wgt id='128'> +4.7254598e+02 </wgt>
<wgt id='129'> +5.3699084e+02 </wgt>
<wgt id='130'> +4.8748305e+02 </wgt>
<wgt id='131'> +4.8970909e+02 </wgt>
<wgt id='132'> +5.4867452e+02 </wgt>
<wgt id='133'> +5.3845602e+02 </wgt>
<wgt id='134'> +5.1509667e+02 </wgt>
<wgt id='135'> +4.9447940e+02 </wgt>
<wgt id='136'> +5.6919055e+02 </wgt>
<wgt id='137'> +5.0681361e+02 </wgt>
<wgt id='138'> +4.9858380e+02 </wgt>
<wgt id='139'> +5.2033824e+02 </wgt>
<wgt id='140'> +5.0130308e+02 </wgt>
<wgt id='141'> +5.4459894e+02 </wgt>
<wgt id='142'> +4.0787427e+02 </wgt>
<wgt id='143'> +5.1924222e+02 </wgt>
<wgt id='144'> +4.7403505e+02 </wgt>
<wgt id='145'> +4.7957400e+02 </wgt>
</rwgt>
</event>
<event>
 4      1 +5.0481800e+02 1.90001100e+02 7.54677100e-03 1.15846000e-01
       21 -1    0    0  503  502 +0.0000000000e+00 +0.0000000000e+00 +2.4405237143e+02 2.4405237143e+02 0.0000000000e+00 0.0000e+00 -1.0000e+00
       21 -1    0    0  501  503 -0.0000000000e+00 -0.0000000000e+00 -1.6192858487e+02 1.6192858487e+02 0.0000000000e+00 0.0000e+00 1.0000e+00
        6  1    1    2  501    0 -4.3116177464e+01 -6.5669061519e+01 -1.8641374989e+01 1.9091341300e+02 1.7300000000e+02 0.0000e+00 1.0000e+00
       -6  1    1    2    0  502 +4.3116177464e+01 +6.5669061519e+01 +1.0076516156e+02 2.1506754331e+02 1.7300000000e+02 0.0000e+00 -1.0000e+00
<mgrwt>
<rscale>  2 0.19000113E+03</rscale>
<asrwt>0</asrwt>
<pdfrwt beam="1">  1       21 0.37546519E-01 0.19000113E+03</pdfrwt>
<pdfrwt beam="2">  1       21 0.24912090E-01 0.19000113E+03</pdfrwt>
<totfact> 0.10442646E+05</totfact>
</mgrwt>
<rwgt>
<wgt id='1'> +6.4358436e+02 </wgt>
<wgt id='2'> +5.3656782e+02 </wgt>
<wgt id='3'> +5.0481800e+02 </wgt>
<wgt id='4'> +6.4358436e+02 </wgt>
<wgt id='5'> +4.9712775e+02 </wgt>
<wgt id='6'> +6.1988211e+02 </wgt>
<wgt id='7'> +5.0854636e+02 </wgt>
<wgt id='8'> +4.7711425e+02 </wgt>
<wgt id='9'> +6.1988210e+02 </wgt>
<wgt id='10'> +4.6968216e+02 </wgt>
<wgt id='11'> +5.8586379e+02 </wgt>
<wgt id='12'> +4.8010899e+02 </wgt>
<wgt id='13'> +4.5034633e+02 </wgt>
<wgt id='14'> +5.8586379e+02 </wgt>
<wgt id='15'> +4.4331376e+02 </wgt>
<wgt id='16'> +5.2412058e+02 </wgt>
<wgt id='17'> +4.4877250e+02 </wgt>
<wgt id='18'> +4.2484122e+02 </wgt>
<wgt id='19'> +5.2412058e+02 </wgt>
<wgt id='20'> +4.1887389e+02 </wgt>
<wgt id='21'> +4.2533601e+02 </wgt>
<wgt id='22'> +4.0152649e+02 </wgt>
<wgt id='23'> +5.0481800e+02 </wgt>
<wgt id='24'> +3.9574857e+02 </wgt>
<wgt id='25'> +4.7711425e+02 </wgt>
<wgt id='26'> +4.0155168e+02 </wgt>
<wgt id='27'> +3.7899933e+02 </wgt>
<wgt id='28'> +4.7711425e+02 </wgt>
<wgt id='29'> +3.7353087e+02 </wgt>
<wgt id='30'> +4.4108575e+02 </wgt>
<wgt id='31'> +3.8165446e+02 </wgt>
<wgt id='32'> +3.6249872e+02 </wgt>
<wgt id='33'> +4.4108575e+02 </wgt>
<wgt id='34'> +3.5769980e+02 </wgt>
<wgt id='35'> +4.2484122e+02 </wgt>
<wgt id='36'> +3.6172311e+02 </wgt>
<wgt id='37'> +3.4260527e+02 </wgt>
<wgt id='38'> +4.2484122e+02 </wgt>
<wgt id='39'> +3.3795180e+02 </wgt>
<wgt id='40'> +4.0152649e+02 </wgt>
<wgt id='41'> +3.4149595e+02 </wgt>
<wgt id='42'> +3.2338381e+02 </wgt>
<wgt id='43'> +4.0152649e+02 </wgt>
<wgt id='44'> +3.1897886e+02 </wgt>
<wgt id='45'> +5.0481800e+02 </wgt>
<wgt id='46'> +5.0156918e+02 </wgt>
<wgt id='47'> +5.2108659e+02 </wgt>
<wgt id='48'> +5.0433576e+02 </wgt>
<wgt id='49'> +5.0421931e+02 </wgt>
<wgt id='50'> +5.8012734e+02 </wgt>
<wgt id='51'> +4.9516689e+02 </wgt>
<wgt id='52'> +5.0102059e+02 </wgt>
<wgt id='53'> +5.1372247e+02 </wgt>
<wgt id='54'> +5.0761262e+02 </wgt>
<wgt id='55'> +4.5115851e+02 </wgt>
<wgt id='56'> +4.7358653e+02 </wgt>
<wgt id='57'> +4.9089081e+02 </wgt>
<wgt id='58'> +5.1134947e+02 </wgt>
<wgt id='59'> +4.9320249e+02 </wgt>
<wgt id='60'> +4.8051955e+02 </wgt>
<wgt id='61'> +4.9960174e+02 </wgt>
<wgt id='62'> +4.9774153e+02 </wgt>
<wgt id='63'> +5.0526597e+02 </wgt>
<wgt id='64'> +5.0329750e+02 </wgt>
<wgt id='65'> +5.9667950e+02 </wgt>
<wgt id='66'> +4.9221105e+02 </wgt>
<wgt id='67'> +5.0942543e+02 </wgt>
<wgt id='68'> +5.3636869e+02 </wgt>
<wgt id='69'> +4.8855984e+02 </wgt>
<wgt id='70'> +4.9706510e+02 </wgt>
<wgt id='71'> +5.1456652e+02 </wgt>
<wgt id='72'> +4.9627434e+02 </wgt>
<wgt id='73'> +4.9991421e+02 </wgt>
<wgt id='74'> +5.1599929e+02 </wgt>
<wgt id='75'> +5.1516116e+02 </wgt>
<wgt id='76'> +4.9062369e+02 </wgt>
<wgt id='77'> +4.8414191e+02 </wgt>
<wgt id='78'> +5.0941991e+02 </wgt>
<wgt id='79'> +4.8189646e+02 </wgt>
<wgt id='80'> +5.0204052e+02 </wgt>
<wgt id='81'> +4.9681838e+02 </wgt>
<wgt id='82'> +5.2097221e+02 </wgt>
<wgt id='83'> +5.1386252e+02 </wgt>
<wgt id='84'> +5.5303423e+02 </wgt>
<wgt id='85'> +5.3174207e+02 </wgt>
<wgt id='86'> +4.9951370e+02 </wgt>
<wgt id='87'> +5.0355270e+02 </wgt>
<wgt id='88'> +5.1290048e+02 </wgt>
<wgt id='89'> +5.1527189e+02 </wgt>
<wgt id='90'> +5.0899083e+02 </wgt>
<wgt id='91'> +5.3858520e+02 </wgt>
<wgt id='92'> +4.7020043e+02 </wgt>
<wgt id='93'> +4.9425388e+02 </wgt>
<wgt id='94'> +5.0470335e+02 </wgt>
<wgt id='95'> +4.8514707e+02 </wgt>
<wgt id='96'> +5.4148593e+02 </wgt>
<wgt id='97'> +5.1490699e+02 </wgt>
<wgt id='98'> +4.8056825e+02 </wgt>
<wgt id='99'> +4.9183317e+02 </wgt>
<wgt id='100'> +5.0714696e+02 </wgt>
<wgt id='101'> +5.2284405e+02 </wgt>
<wgt id='102'> +4.8406920e+02 </wgt>
<wgt id='103'> +5.4543980e+02 </wgt>
<wgt id='104'> +5.0228139e+02 </wgt>
<wgt id='105'> +5.2689795e+02 </wgt>
<wgt id='106'> +4.6978570e+02 </wgt>
<wgt id='107'> +5.0449321e+02 </wgt>
<wgt id='108'> +4.5796610e+02 </wgt>
<wgt id='109'> +4.7751790e+02 </wgt>
<wgt id='110'> +5.0689584e+02 </wgt>
<wgt id='111'> +4.9357186e+02 </wgt>
<wgt id='112'> +4.8509814e+02 </wgt>
<wgt id='113'> +4.6603159e+02 </wgt>
<wgt id='114'> +5.0931523e+02 </wgt>
<wgt id='115'> +5.1263227e+02 </wgt>
<wgt id='116'> +4.9922203e+02 </wgt>
<wgt id='117'> +5.1404215e+02 </wgt>
<wgt id='118'> +5.1286872e+02 </wgt>
<wgt id='119'> +4.8665143e+02 </wgt>
<wgt id='120'> +5.0716395e+02 </wgt>
<wgt id='121'> +4.9207762e+02 </wgt>
<wgt id='122'> +4.9887280e+02 </wgt>
<wgt id='123'> +5.1033974e+02 </wgt>
<wgt id='124'> +5.3271536e+02 </wgt>
<wgt id='125'> +5.3440305e+02 </wgt>
<wgt id='126'> +5.2242207e+02 </wgt>
<wgt id='127'> +5.1808534e+02 </wgt>
<wgt id='128'> +4.7238724e+02 </wgt>
<wgt id='129'> +5.6967790e+02 </wgt>
<wgt id='130'> +5.0830651e+02 </wgt>
<wgt id='131'> +5.4126576e+02 </wgt>
<wgt id='132'> +4.9473764e+02 </wgt>
<wgt id='133'> +4.9738216e+02 </wgt>
<wgt id='134'> +4.7362960e+02 </wgt>
<wgt id='135'> +5.1792806e+02 </wgt>
<wgt id='136'> +4.8006122e+02 </wgt>
<wgt id='137'> +4.7403807e+02 </wgt>
<wgt id='138'> +4.5514123e+02 </wgt>
<wgt id='139'> +5.1242614e+02 </wgt>
<wgt id='140'> +5.3913706e+02 </wgt>
<wgt id='141'> +5.0276897e+02 </wgt>
<wgt id='142'> +5.1364596e+02 </wgt>
<wgt id='143'> +4.9790998e+02 </wgt>
<wgt id='144'> +5.0704128e+02 </wgt>
<wgt id='145'> +5.0592141e+02 </wgt>
</rwgt>
</event>
<event>
 4      1 +5.0481800e+02 2.87003700e+02 7.54677100e-03 1.09192400e-01
       21 -1    0    0  503  502 +0.0000000000e+00 +0.0000000000e+00 +1.8633693011e+03 1.8633693011e+03 0.0000000000e+00 0.0000e+00 -1.0000e+00
       21 -1    0    0  501  503 -0.0000000000e+00 -0.0000000000e+00 -6.1385682508e+01 6.1385682508e+01 0.0000000000e+00 0.0000e+00 -1.0000e+00
        6  1    1    2  501    0 -6.3262930654e+01 +2.2009069284e+02 +3.9186471754e+02 4.8572530130e+02 1.7300000000e+02 0.0000e+00 -1.0000e+00
       -6  1    1    2    0  502 +6.3262930654e+01 -2.2009069284e+02 +1.4101189011e+03 1.4390296824e+03 1.7300000000e+02 0.0000e+00 -1.0000e+00
<mgrwt>
<rscale>  2 0.28700368E+03</rscale>
<asrwt>0</asrwt>
<pdfrwt beam="1">  1       21 0.28667216E+00 0.28700368E+03</pdfrwt>
<pdfrwt beam="2">  1       21 0.94439526E-02 0.28700368E+03</pdfrwt>
<totfact> 0.33396937E+03</totfact>
</mgrwt>
<rwgt>
<wgt id='1'> +7.0791258e+02 </wgt>
<wgt id='2'> +5.5188242e+02 </wgt>
<wgt id='3'> +5.0481800e+02 </wgt>
<wgt id='4'> +7.0791258e+02 </wgt>
<wgt id='5'> +4.6763048e+02 </wgt>
<wgt id='6'> +6.0655352e+02 </wgt>
<wgt id='7'> +4.7360027e+02 </wgt>
<wgt id='8'> +4.3424558e+02 </wgt>
<wgt id='9'> +6.0655352e+02 </wgt>
<wgt id='10'> +4.0308845e+02 </wgt>
<wgt id='11'> +5.2175870e+02 </wgt>
<wgt id='12'> +4.0996781e+02 </wgt>
<wgt id='13'> +3.7676352e+02 </wgt>
<wgt id='14'> +5.2175870e+02 </wgt>
<wgt id='15'> +3.5042267e+02 </wgt>
<wgt id='16'> +5.8917639e+02 </wgt>
<wgt id='17'> +4.6668357e+02 </wgt>
<wgt id='18'> +4.2847806e+02 </wgt>
<wgt id='19'> +5.8917639e+02 </wgt>
<wgt id='20'> +3.9815472e+02 </wgt>
<wgt id='21'> +4.0048651e+02 </wgt>
<wgt id='22'> +3.6857779e+02 </wgt>
<wgt id='23'> +5.0481800e+02 </wgt>
<wgt id='24'> +3.4320169e+02 </wgt>
<wgt id='25'> +4.3424558e+02 </wgt>
<wgt id='26'> +3.4667754e+02 </wgt>
<wgt id='27'> +3.1978833e+02 </wgt>
<wgt id='28'> +4.3424558e+02 </wgt>
<wgt id='29'> +2.9836045e+02 </wgt>
<wgt id='30'> +5.0007955e+02 </wgt>
<wgt id='31'> +3.9978980e+02 </wgt>
<wgt id='32'> +3.6822864e+02 </wgt>
<wgt id='33'> +5.0007955e+02 </wgt>
<wgt id='34'> +3.4308478e+02 </wgt>
<wgt id='35'> +4.2847806e+02 </wgt>
<wgt id='36'> +3.4308133e+02 </wgt>
<wgt id='37'> +3.1675110e+02 </wgt>
<wgt id='38'> +4.2847806e+02 </wgt>
<wgt id='39'> +2.9573246e+02 </wgt>
<wgt id='40'> +3.6857779e+02 </wgt>
<wgt id='41'> +2.9698527e+02 </wgt>
<wgt id='42'> +2.7482206e+02 </wgt>
<wgt id='43'> +3.6857779e+02 </wgt>
<wgt id='44'> +2.5709335e+02 </wgt>
<wgt id='45'> +5.0481800e+02 </wgt>
<wgt id='46'> +5.1191549e+02 </wgt>
<wgt id='47'> +5.8243858e+02 </wgt>
<wgt id='48'> +5.0593649e+02 </wgt>
<wgt id='49'> +4.4334534e+02 </wgt>
<wgt id='50'> +6.0832162e+02 </wgt>
<wgt id='51'> +4.7560498e+02 </wgt>
<wgt id='52'> +4.1910944e+02 </wgt>
<wgt id='53'> +5.5132341e+02 </wgt>
<wgt id='54'> +5.3850676e+02 </wgt>
<wgt id='55'> +6.1800750e+02 </wgt>
<wgt id='56'> +4.8969423e+02 </wgt>
<wgt id='57'> +5.4687270e+02 </wgt>
<wgt id='58'> +4.2553387e+02 </wgt>
<wgt id='59'> +5.4483113e+02 </wgt>
<wgt id='60'> +4.8162396e+02 </wgt>
<wgt id='61'> +3.9261568e+02 </wgt>
<wgt id='62'> +4.3526517e+02 </wgt>
<wgt id='63'> +5.3857389e+02 </wgt>
<wgt id='64'> +5.0587467e+02 </wgt>
<wgt id='65'> +4.0288328e+02 </wgt>
<wgt id='66'> +5.2339266e+02 </wgt>
<wgt id='67'> +5.0063476e+02 </wgt>
<wgt id='68'> +7.2232084e+02 </wgt>
<wgt id='69'> +6.0226480e+02 </wgt>
<wgt id='70'> +6.4139108e+02 </wgt>
<wgt id='71'> +4.3534827e+02 </wgt>
<wgt id='72'> +4.1561976e+02 </wgt>
<wgt id='73'> +4.3714079e+02 </wgt>
<wgt id='74'> +6.5581570e+02 </wgt>
<wgt id='75'> +6.2588821e+02 </wgt>
<wgt id='76'> +5.1516172e+02 </wgt>
<wgt id='77'> +4.3812519e+02 </wgt>
<wgt id='78'> +4.0925813e+02 </wgt>
<wgt id='79'> +5.7573208e+02 </wgt>
<wgt id='80'> +3.9624141e+02 </wgt>
<wgt id='81'> +5.5593042e+02 </wgt>
<wgt id='82'> +5.0196322e+02 </wgt>
<wgt id='83'> +5.0692283e+02 </wgt>
<wgt id='84'> +4.5339482e+02 </wgt>
<wgt id='85'> +4.2182079e+02 </wgt>
<wgt id='86'> +5.6135602e+02 </wgt>
<wgt id='87'> +4.7560840e+02 </wgt>
<wgt id='88'> +5.2954396e+02 </wgt>
<wgt id='89'> +3.3385396e+02 </wgt>
<wgt id='90'> +4.1468299e+02 </wgt>
<wgt id='91'> +3.8418564e+02 </wgt>
<wgt id='92'> +4.7254439e+02 </wgt>
<wgt id='93'> +5.2740398e+02 </wgt>
<wgt id='94'> +4.4113699e+02 </wgt>
<wgt id='95'> +5.2261884e+02 </wgt>
<wgt id='96'> +5.1840231e+02 </wgt>
<wgt id='97'> +4.2619841e+02 </wgt>
<wgt id='98'> +6.1028973e+02 </wgt>
<wgt id='99'> +3.8042300e+02 </wgt>
<wgt id='100'> +3.2740666e+02 </wgt>
<wgt id='101'> +6.1141315e+02 </wgt>
<wgt id='102'> +5.9597549e+02 </wgt>
<wgt id='103'> +4.3217395e+02 </wgt>
<wgt id='104'> +5.7179815e+02 </wgt>
<wgt id='105'> +5.1514218e+02 </wgt>
<wgt id='106'> +5.1226198e+02 </wgt>
<wgt id='107'> +5.2010166e+02 </wgt>
<wgt id='108'> +4.6762757e+02 </wgt>
<wgt id='109'> +5.0407566e+02 </wgt>
<wgt id='110'> +4.0973597e+02 </wgt>
<wgt id='111'> +4.7457728e+02 </wgt>
<wgt id='112'> +5.2605595e+02 </wgt>
<wgt id='113'> +6.0637675e+02 </wgt>
<wgt id='114'> +4.9214391e+02 </wgt>
<wgt id='115'> +4.8209426e+02 </wgt>
<wgt id='116'> +5.8191119e+02 </wgt>
<wgt id='117'> +5.1604887e+02 </wgt>
<wgt id='118'> +5.0218841e+02 </wgt>
<wgt id='119'> +5.5796146e+02 </wgt>
<wgt id='120'> +4.9658901e+02 </wgt>
<wgt id='121'> +4.6135077e+02 </wgt>
<wgt id='122'> +4.7572092e+02 </wgt>
<wgt id='123'> +4.5097594e+02 </wgt>
<wgt id='124'> +5.6754216e+02 </wgt>
<wgt id='125'> +7.2404247e+02 </wgt>
<wgt id='126'> +4.7908967e+02 </wgt>
<wgt id='127'> +4.5503808e+02 </wgt>
<wgt id='128'> +5.0692401e+02 </wgt>
<wgt id='129'> +4.7958125e+02 </wgt>
<wgt id='130'> +5.0511438e+02 </wgt>
<wgt id='131'> +4.2880812e+02 </wgt>
<wgt id='132'> +5.3507421e+02 </wgt>
<wgt id='133'> +5.6366681e+02 </wgt>
<wgt id='134'> +5.6280145e+02 </wgt>
<wgt id='135'> +4.6967007e+02 </wgt>
<wgt id='136'> +6.1998414e+02 </wgt>
<wgt id='137'> +5.9877683e+02 </wgt>
<wgt id='138'> +5.6011294e+02 </wgt>
<wgt id='139'> +5.2605969e+02 </wgt>
<wgt id='140'> +4.8542326e+02 </wgt>
<wgt id='141'> +6.6093316e+02 </wgt>
<wgt id='142'> +2.4578098e+02 </wgt>
<wgt id='143'> +5.0909896e+02 </wgt>
<wgt id='144'> +4.3068213e+02 </wgt>
<wgt id='145'> +4.5340083e+02 </wgt>
</rwgt>
</event>
<event>
 4      1 +5.0481800e+02 1.76632500e+02 7.54677100e-03 1.17110300e-01
       21 -1    0    0  503  502 +0.0000000000e+00 +0.0000000000e+00 +1.4796524935e+02 1.4796524935e+02 0.0000000000e+00 0.0000e+00 1.0000e+00
       21 -1    0    0  501  503 -0.0000000000e+00 -0.0000000000e+00 -2.1234885697e+02 2.1234885697e+02 0.0000000000e+00 0.0000e+00 1.0000e+00
        6  1    1    2  501    0 +2.6360535849e+01 -2.3982335100e+01 -4.7308606097e+01 1.8285823596e+02 1.7300000000e+02 0.0000e+00 -1.0000e+00
       -6  1    1    2    0  502 -2.6360535849e+01 +2.3982335100e+01 -1.7075001527e+01 1.7745587036e+02 1.7300000000e+02 0.0000e+00 -1.0000e+00
<mgrwt>
<rscale>  2 0.17663247E+03</rscale>
<asrwt>0</asrwt>
<pdfrwt beam="1">  1       21 0.22763885E-01 0.17663247E+03</pdfrwt>
<pdfrwt beam="2">  1       21 0.32669055E-01 0.17663247E+03</pdfrwt>
<totfact> 0.16402317E+05</totfact>
</mgrwt>
<rwgt>
<wgt id='1'> +6.3929097e+02 </wgt>
<wgt id='2'> +5.5227936e+02 </wgt>
<wgt id='3'> +5.0481800e+02 </wgt>
<wgt id='4'> +6.3929096e+02 </wgt>
<wgt id='5'> +5.0422869e+02 </wgt>
<wgt id='6'> +6.2200180e+02 </wgt>
<wgt id='7'> +5.2998087e+02 </wgt>
<wgt id='8'> +4.8098754e+02 </wgt>
<wgt id='9'> +6.2200180e+02 </wgt>
<wgt id='10'> +4.8039990e+02 </wgt>
<wgt id='11'> +5.9263956e+02 </wgt>
<wgt id='12'> +5.0384427e+02 </wgt>
<wgt id='13'> +4.5697132e+02 </wgt>
<wgt id='14'> +5.9263956e+02 </wgt>
<wgt id='15'> +4.5640970e+02 </wgt>
<wgt id='16'> +5.1884993e+02 </wgt>
<wgt id='17'> +4.5820637e+02 </wgt>
<wgt id='18'> +4.2389008e+02 </wgt>
<wgt id='19'> +5.1884992e+02 </wgt>
<wgt id='20'> +4.2344460e+02 </wgt>
<wgt id='21'> +4.3970611e+02 </wgt>
<wgt id='22'> +4.0387991e+02 </wgt>
<wgt id='23'> +5.0481800e+02 </wgt>
<wgt id='24'> +4.0343350e+02 </wgt>
<wgt id='25'> +4.8098754e+02 </wgt>
<wgt id='26'> +4.1802151e+02 </wgt>
<wgt id='27'> +3.8371375e+02 </wgt>
<wgt id='28'> +4.8098754e+02 </wgt>
<wgt id='29'> +3.8328685e+02 </wgt>
<wgt id='30'> +4.3567253e+02 </wgt>
<wgt id='31'> +3.8845043e+02 </wgt>
<wgt id='32'> +3.6120598e+02 </wgt>
<wgt id='33'> +4.3567253e+02 </wgt>
<wgt id='34'> +3.6084987e+02 </wgt>
<wgt id='35'> +4.2389008e+02 </wgt>
<wgt id='36'> +3.7276660e+02 </wgt>
<wgt id='37'> +3.4415488e+02 </wgt>
<wgt id='38'> +4.2389008e+02 </wgt>
<wgt id='39'> +3.4379686e+02 </wgt>
<wgt id='40'> +4.0387991e+02 </wgt>
<wgt id='41'> +3.5438320e+02 </wgt>
<wgt id='42'> +3.2697086e+02 </wgt>
<wgt id='43'> +4.0387991e+02 </wgt>
<wgt id='44'> +3.2662834e+02 </wgt>
<wgt id='45'> +5.0481800e+02 </wgt>
<wgt id='46'> +4.9892185e+02 </wgt>
<wgt id='47'> +5.1915706e+02 </wgt>
<wgt id='48'> +5.0249967e+02 </wgt>
<wgt id='49'> +5.0428261e+02 </wgt>
<wgt id='50'> +5.7176678e+02 </wgt>
<wgt id='51'> +4.9513668e+02 </wgt>
<wgt id='52'> +5.0040627e+02 </wgt>
<wgt id='53'> +5.1566203e+02 </wgt>
<wgt id='54'> +5.0765658e+02 </wgt>
<wgt id='55'> +4.5281527e+02 </wgt>
<wgt id='56'> +4.7681706e+02 </wgt>
<wgt id='57'> +4.9149344e+02 </wgt>
<wgt id='58'> +5.1384765e+02 </wgt>
<wgt id='59'> +4.9088364e+02 </wgt>
<wgt id='60'> +4.7835927e+02 </wgt>
<wgt id='61'> +5.0448758e+02 </wgt>
<wgt id='62'> +4.9711213e+02 </wgt>
<wgt id='63'> +5.0525912e+02 </wgt>
<wgt id='64'> +5.0588366e+02 </wgt>
<wgt id='65'> +5.9552910e+02 </wgt>
<wgt id='66'> +4.9173347e+02 </wgt>
<wgt id='67'> +5.0940066e+02 </wgt>
<wgt id='68'> +5.3304384e+02 </wgt>
<wgt id='69'> +4.8519623e+02 </wgt>
<wgt id='70'> +4.9778145e+02 </wgt>
<wgt id='71'> +5.1465412e+02 </wgt>
<wgt id='72'> +5.0191235e+02 </wgt>
<wgt id='73'> +5.0121915e+02 </wgt>
<wgt id='74'> +5.1300389e+02 </wgt>
<wgt id='75'> +5.1419661e+02 </wgt>
<wgt id='76'> +4.9177667e+02 </wgt>
<wgt id='77'> +4.8266489e+02 </wgt>
<wgt id='78'> +5.1223722e+02 </wgt>
<wgt id='79'> +4.8055659e+02 </wgt>
<wgt id='80'> +5.0304144e+02 </wgt>
<wgt id='81'> +4.9810092e+02 </wgt>
<wgt id='82'> +5.2216150e+02 </wgt>
<wgt id='83'> +5.1205665e+02 </wgt>
<wgt id='84'> +5.5068781e+02 </wgt>
<wgt id='85'> +5.3105121e+02 </wgt>
<wgt id='86'> +4.9776502e+02 </wgt>
<wgt id='87'> +5.0254490e+02 </wgt>
<wgt id='88'> +5.1169855e+02 </wgt>
<wgt id='89'> +5.1367011e+02 </wgt>
<wgt id='90'> +5.0805228e+02 </wgt>
<wgt id='91'> +5.3880611e+02 </wgt>
<wgt id='92'> +4.7611007e+02 </wgt>
<wgt id='93'> +4.9275684e+02 </wgt>
<wgt id='94'> +5.0670176e+02 </wgt>
<wgt id='95'> +4.8704067e+02 </wgt>
<wgt id='96'> +5.3704216e+02 </wgt>
<wgt id='97'> +5.1636874e+02 </wgt>
<wgt id='98'> +4.8038774e+02 </wgt>
<wgt id='99'> +4.9292111e+02 </wgt>
<wgt id='100'> +5.1172815e+02 </wgt>
<wgt id='101'> +5.1735888e+02 </wgt>
<wgt id='102'> +4.7975827e+02 </wgt>
<wgt id='103'> +5.4252034e+02 </wgt>
<wgt id='104'> +5.0077347e+02 </wgt>
<wgt id='105'> +5.2890459e+02 </wgt>
<wgt id='106'> +4.7503860e+02 </wgt>
<wgt id='107'> +5.0928500e+02 </wgt>
<wgt id='108'> +4.6303579e+02 </wgt>
<wgt id='109'> +4.8079829e+02 </wgt>
<wgt id='110'> +5.0782730e+02 </wgt>
<wgt id='111'> +4.9548033e+02 </wgt>
<wgt id='112'> +4.8790469e+02 </wgt>
<wgt id='113'> +4.6882027e+02 </wgt>
<wgt id='114'> +5.1418983e+02 </wgt>
<wgt id='115'> +5.1721479e+02 </wgt>
<wgt id='116'> +4.9518061e+02 </wgt>
<wgt id='117'> +5.1550010e+02 </wgt>
<wgt id='118'> +5.0906187e+02 </wgt>
<wgt id='119'> +4.8849978e+02 </wgt>
<wgt id='120'> +5.0998564e+02 </wgt>
<wgt id='121'> +4.9391420e+02 </wgt>
<wgt id='122'> +4.9957909e+02 </wgt>
<wgt id='123'> +5.0902767e+02 </wgt>
<wgt id='124'> +5.2785536e+02 </wgt>
<wgt id='125'> +5.3009695e+02 </wgt>
<wgt id='126'> +5.2028453e+02 </wgt>
<wgt id='127'> +5.1637202e+02 </wgt>
<wgt id='128'> +4.7505796e+02 </wgt>
<wgt id='129'> +5.6756422e+02 </wgt>
<wgt id='130'> +5.0703720e+02 </wgt>
<wgt id='131'> +5.4092827e+02 </wgt>
<wgt id='132'> +4.9246972e+02 </wgt>
<wgt id='133'> +4.9455368e+02 </wgt>
<wgt id='134'> +4.7358640e+02 </wgt>
<wgt id='135'> +5.1775170e+02 </wgt>
<wgt id='136'> +4.7869359e+02 </wgt>
<wgt id='137'> +4.7308840e+02 </wgt>
<wgt id='138'> +4.5195088e+02 </wgt>
<wgt id='139'> +5.1080750e+02 </wgt>
<wgt id='140'> +5.4041522e+02 </wgt>
<wgt id='141'> +5.0188384e+02 </wgt>
<wgt id='142'> +5.1695644e+02 </wgt>
<wgt id='143'> +4.9665888e+02 </wgt>
<wgt id='144'> +5.0921953e+02 </wgt>
<wgt id='145'> +5.0577523e+02 </wgt>
</rwgt>
</event>
<event>
 4      1 +5.0481800e+02 2.18901300e+02 7.54677100e-03 1.13470500e-01
       21 -1    0    0  501  502 +0.0000000000e+00 +0.0000000000e+00 +1.1702219350e+02 1.1702219350e+02 0.0000000000e+00 0.0000e+00 1.0000e+00
       21 -1    0    0  502  503 -0.0000000000e+00 -0.0000000000e+00 -4.5536293604e+02 4.5536293604e+02 0.0000000000e+00 0.0000e+00 1.0000e+00
        6  1    1    2  501    0 -1.1640726021e+02 +6.6619419230e+01 -7.8320706747e+01 2.3249071025e+02 1.7300000000e+02 0.0000e+00 1.0000e+00
       -6  1    1    2    0  503 +1.1640726021e+02 -6.6619419230e+01 -2.6002003579e+02 3.3989441929e+02 1.7300000000e+02 0.0000e+00 1.0000e+00
<mgrwt>
<rscale>  2 0.21890134E+03</rscale>
<asrwt>0</asrwt>
<pdfrwt beam="1">  1       21 0.18003414E-01 0.21890134E+03</pdfrwt>
<pdfrwt beam="2">  1       21 0.70055837E-01 0.21890134E+03</pdfrwt>
<totfact> 0.51263751E+04</totfact>
</mgrwt>
<rwgt>
<wgt id='1'> +6.5030999e+02 </wgt>
<wgt id='2'> +5.4322820e+02 </wgt>
<wgt id='3'> +5.0481800e+02 </wgt>
<wgt id='4'> +6.5030999e+02 </wgt>
<wgt id='5'> +4.9543296e+02 </wgt>
<wgt id='6'> +6.1517481e+02 </wgt>
<wgt id='7'> +5.0742111e+02 </wgt>
<wgt id='8'> +4.7111608e+02 </wgt>
<wgt id='9'> +6.1517481e+02 </wgt>
<wgt id='10'> +4.6238442e+02 </wgt>
<wgt id='11'> +5.7410542e+02 </wgt>
<wgt id='12'> +4.7358961e+02 </wgt>
<wgt id='13'> +4.3976402e+02 </wgt>
<wgt id='14'> +5.7410542e+02 </wgt>
<wgt id='15'> +4.3163295e+02 </wgt>
<wgt id='16'> +5.3365024e+02 </wgt>
<wgt id='17'> +4.5628252e+02 </wgt>
<wgt id='18'> +4.2619193e+02 </wgt>
<wgt id='19'> +5.3365024e+02 </wgt>
<wgt id='20'> +4.1869210e+02 </wgt>
<wgt id='21'> +4.2620648e+02 </wgt>
<wgt id='22'> +3.9773913e+02 </wgt>
<wgt id='23'> +5.0481800e+02 </wgt>
<wgt id='24'> +3.9076267e+02 </wgt>
<wgt id='25'> +4.7111608e+02 </wgt>
<wgt id='26'> +3.9778983e+02 </wgt>
<wgt id='27'> +3.7127019e+02 </wgt>
<wgt id='28'> +4.7111608e+02 </wgt>
<wgt id='29'> +3.6477450e+02 </wgt>
<wgt id='30'> +4.5053351e+02 </wgt>
<wgt id='31'> +3.8887516e+02 </wgt>
<wgt id='32'> +3.6457460e+02 </wgt>
<wgt id='33'> +4.5053351e+02 </wgt>
<wgt id='34'> +3.5849071e+02 </wgt>
<wgt id='35'> +4.2619193e+02 </wgt>
<wgt id='36'> +3.6324230e+02 </wgt>
<wgt id='37'> +3.4023541e+02 </wgt>
<wgt id='38'> +4.2619193e+02 </wgt>
<wgt id='39'> +3.3457710e+02 </wgt>
<wgt id='40'> +3.9773913e+02 </wgt>
<wgt id='41'> +3.3902369e+02 </wgt>
<wgt id='42'> +3.1759326e+02 </wgt>
<wgt id='43'> +3.9773913e+02 </wgt>
<wgt id='44'> +3.1232562e+02 </wgt>
<wgt id='45'> +5.0481800e+02 </wgt>
<wgt id='46'> +5.0964710e+02 </wgt>
<wgt id='47'> +5.2231153e+02 </wgt>
<wgt id='48'> +5.0795713e+02 </wgt>
<wgt id='49'> +5.0135255e+02 </wgt>
<wgt id='50'> +5.9456090e+02 </wgt>
<wgt id='51'> +4.9442262e+02 </wgt>
<wgt id='52'> +5.0317668e+02 </wgt>
<wgt id='53'> +5.0544926e+02 </wgt>
<wgt id='54'> +5.0920964e+02 </wgt>
<wgt id='55'> +4.6102316e+02 </wgt>
<wgt id='56'> +4.6587429e+02 </wgt>
<wgt id='57'> +4.9690114e+02 </wgt>
<wgt id='58'> +5.0263127e+02 </wgt>
<wgt id='59'> +5.0781268e+02 </wgt>
<wgt id='60'> +4.9259726e+02 </wgt>
<wgt id='61'> +4.7133986e+02 </wgt>
<wgt id='62'> +4.9756949e+02 </wgt>
<wgt id='63'> +5.0567543e+02 </wgt>
<wgt id='64'> +4.9706383e+02 </wgt>
<wgt id='65'> +5.8181982e+02 </wgt>
<wgt id='66'> +4.9437545e+02 </wgt>
<wgt id='67'> +5.0882130e+02 </wgt>
<wgt id='68'> +5.4721650e+02 </wgt>
<wgt id='69'> +4.9778960e+02 </wgt>
<wgt id='70'> +4.9705023e+02 </wgt>
<wgt id='71'> +5.1290196e+02 </wgt>
<wgt id='72'> +4.8759778e+02 </wgt>
<wgt id='73'> +4.9477505e+02 </wgt>
<wgt id='74'> +5.2549484e+02 </wgt>
<wgt id='75'> +5.1624401e+02 </wgt>
<wgt id='76'> +4.9307210e+02 </wgt>
<wgt id='77'> +4.9041590e+02 </wgt>
<wgt id='78'> +4.9618429e+02 </wgt>
<wgt id='79'> +4.9034703e+02 </wgt>
<wgt id='80'> +4.9682024e+02 </wgt>
<wgt id='81'> +4.9525853e+02 </wgt>
<wgt id='82'> +5.1029182e+02 </wgt>
<wgt id='83'> +5.1405967e+02 </wgt>
<wgt id='84'> +5.4990489e+02 </wgt>
<wgt id='85'> +5.2474880e+02 </wgt>
<wgt id='86'> +5.0413353e+02 </wgt>
<wgt id='87'> +5.0643188e+02 </wgt>
<wgt id='88'> +5.1128673e+02 </wgt>
<wgt id='89'> +5.1528332e+02 </wgt>
<wgt id='90'> +5.1253566e+02 </wgt>
<wgt id='91'> +5.2948063e+02 </wgt>
<wgt id='92'> +4.6260150e+02 </wgt>
<wgt id='93'> +4.9901799e+02 </wgt>
<wgt id='94'> +4.9782746e+02 </wgt>
<wgt id='95'> +4.8904039e+02 </wgt>
<wgt id='96'> +5.4431103e+02 </wgt>
<wgt id='97'> +5.0734522e+02 </wgt>
<wgt id='98'> +4.8639442e+02 </wgt>
<wgt id='99'> +4.8608541e+02 </wgt>
<wgt id='100'> +4.8903864e+02 </wgt>
<wgt id='101'> +5.4112304e+02 </wgt>
<wgt id='102'> +5.0209142e+02 </wgt>
<wgt id='103'> +5.4671047e+02 </wgt>
<wgt id='104'> +5.0627761e+02 </wgt>
<wgt id='105'> +5.2256342e+02 </wgt>
<wgt id='106'> +4.6234288e+02 </wgt>
<wgt id='107'> +4.9103739e+02 </wgt>
<wgt id='108'> +4.4926441e+02 </wgt>
<wgt id='109'> +4.7407279e+02 </wgt>
<wgt id='110'> +5.0354150e+02 </wgt>
<wgt id='111'> +4.9109406e+02 </wgt>
<wgt id='112'> +4.7948969e+02 </wgt>
<wgt id='113'> +4.6502096e+02 </wgt>
<wgt id='114'> +4.9832368e+02 </wgt>
<wgt id='115'> +4.9396965e+02 </wgt>
<wgt id='116'> +5.1185863e+02 </wgt>
<wgt id='117'> +5.0629837e+02 </wgt>
<wgt id='118'> +5.2265732e+02 </wgt>
<wgt id='119'> +4.8765385e+02 </wgt>
<wgt id='120'> +4.9710213e+02 </wgt>
<wgt id='121'> +4.9194778e+02 </wgt>
<wgt id='122'> +4.9876022e+02 </wgt>
<wgt id='123'> +5.1029594e+02 </wgt>
<wgt id='124'> +5.4672321e+02 </wgt>
<wgt id='125'> +5.4901573e+02 </wgt>
<wgt id='126'> +5.2304133e+02 </wgt>
<wgt id='127'> +5.1935820e+02 </wgt>
<wgt id='128'> +4.6467882e+02 </wgt>
<wgt id='129'> +5.6893966e+02 </wgt>
<wgt id='130'> +5.0522575e+02 </wgt>
<wgt id='131'> +5.3475103e+02 </wgt>
<wgt id='132'> +5.1145690e+02 </wgt>
<wgt id='133'> +5.0842177e+02 </wgt>
<wgt id='134'> +4.8137619e+02 </wgt>
<wgt id='135'> +5.1543264e+02 </wgt>
<wgt id='136'> +4.9797577e+02 </wgt>
<wgt id='137'> +4.7921362e+02 </wgt>
<wgt id='138'> +4.6604701e+02 </wgt>
<wgt id='139'> +5.1682263e+02 </wgt>
<wgt id='140'> +5.2944598e+02 </wgt>
<wgt id='141'> +5.0735122e+02 </wgt>
<wgt id='142'> +4.9450982e+02 </wgt>
<wgt id='143'> +5.0641733e+02 </wgt>
<wgt id='144'> +5.0047896e+02 </wgt>
<wgt id='145'> +5.0480426e+02 </wgt>
</rwgt>
</event>
<event>
 4      1 +5.0481800e+02 2.67437200e+02 7.54677100e-03 1.10275500e-01
       21 -1    0    0  503  502 +0.0000000000e+00 +0.0000000000e+00 +7.0871535939e+01 7.0871535939e+01 0.0000000000e+00 0.0000e+00 1.0000e+00
       21 -1    0    0  501  503 -0.0000000000e+00 -0.0000000000e+00 -1.2225836932e+03 1.2225836932e+03 0.0000000000e+00 0.0000e+00 1.0000e+00
        6  1    1    2  501    0 +3.4409553123e+01 -2.0102149073e+02 -8.4605001531e+02 8.8731239453e+02 1.7300000000e+02 0.0000e+00 1.0000e+00
       -6  1    1    2    0  502 -3.4409553123e+01 +2.0102149073e+02 -3.0566214196e+02 4.0614283462e+02 1.7300000000e+02 0.0000e+00 1.0000e+00
<mgrwt>
<rscale>  2 0.26743720E+03</rscale>
<asrwt>0</asrwt>
<pdfrwt beam="1">  1       21 0.10903313E-01 0.26743720E+03</pdfrwt>
<pdfrwt beam="2">  1       21 0.18808979E+00 0.26743720E+03</pdfrwt>
<totfact> 0.10604680E+04</totfact>
</mgrwt>
<rwgt>
<wgt id='1'> +6.7648900e+02 </wgt>
<wgt id='2'> +5.5063259e+02 </wgt>
<wgt id='3'> +5.0481800e+02 </wgt>
<wgt id='4'> +6.7648899e+02 </wgt>
<wgt id='5'> +4.8549021e+02 </wgt>
<wgt id='6'> +6.0876511e+02 </wgt>
<wgt id='7'> +4.9307941e+02 </wgt>
<wgt id='8'> +4.5256946e+02 </wgt>
<wgt id='9'> +6.0876511e+02 </wgt>
<wgt id='10'> +4.3545722e+02 </wgt>
<wgt id='11'> +5.4575807e+02 </wgt>
<wgt id='12'> +4.4318360e+02 </wgt>
<wgt id='13'> +4.0725228e+02 </wgt>
<wgt id='14'> +5.4575807e+02 </wgt>
<wgt id='15'> +3.9206737e+02 </wgt>
<wgt id='16'> +5.6097798e+02 </wgt>
<wgt id='17'> +4.6478230e+02 </wgt>
<wgt id='18'> +4.2788369e+02 </wgt>
<wgt id='19'> +5.6097797e+02 </wgt>
<wgt id='20'> +4.1227467e+02 </wgt>
<wgt id='21'> +4.1620236e+02 </wgt>
<wgt id='22'> +3.8359783e+02 </wgt>
<wgt id='23'> +5.0481800e+02 </wgt>
<wgt id='24'> +3.6978702e+02 </wgt>
<wgt id='25'> +4.5256946e+02 </wgt>
<wgt id='26'> +3.7408591e+02 </wgt>
<wgt id='27'> +3.4518699e+02 </wgt>
<wgt id='28'> +4.5256946e+02 </wgt>
<wgt id='29'> +3.3294069e+02 </wgt>
<wgt id='30'> +4.7548488e+02 </wgt>
<wgt id='31'> +3.9751464e+02 </wgt>
<wgt id='32'> +3.6728507e+02 </wgt>
<wgt id='33'> +4.7548488e+02 </wgt>
<wgt id='34'> +3.5445245e+02 </wgt>
<wgt id='35'> +4.2788369e+02 </wgt>
<wgt id='36'> +3.5596565e+02 </wgt>
<wgt id='37'> +3.2927115e+02 </wgt>
<wgt id='38'> +4.2788369e+02 </wgt>
<wgt id='39'> +3.1792377e+02 </wgt>
<wgt id='40'> +3.8359783e+02 </wgt>
<wgt id='41'> +3.1994469e+02 </wgt>
<wgt id='42'> +2.9630021e+02 </wgt>
<wgt id='43'> +3.8359783e+02 </wgt>
<wgt id='44'> +2.8624519e+02 </wgt>
<wgt id='45'> +5.0481800e+02 </wgt>
<wgt id='46'> +5.1899100e+02 </wgt>
<wgt id='47'> +5.2604093e+02 </wgt>
<wgt id='48'> +5.0491519e+02 </wgt>
<wgt id='49'> +4.6806989e+02 </wgt>
<wgt id='50'> +5.9987779e+02 </wgt>
<wgt id='51'> +4.7675691e+02 </wgt>
<wgt id='52'> +4.7411849e+02 </wgt>
<wgt id='53'> +5.0755624e+02 </wgt>
<wgt id='54'> +5.3393040e+02 </wgt>
<wgt id='55'> +5.5292678e+02 </wgt>
<wgt id='56'> +4.7855122e+02 </wgt>
<wgt id='57'> +5.3293123e+02 </wgt>
<wgt id='58'> +4.5938511e+02 </wgt>
<wgt id='59'> +5.4538374e+02 </wgt>
<wgt id='60'> +5.0159132e+02 </wgt>
<wgt id='61'> +4.4414976e+02 </wgt>
<wgt id='62'> +4.6790157e+02 </wgt>
<wgt id='63'> +5.2927646e+02 </wgt>
<wgt id='64'> +5.0338614e+02 </wgt>
<wgt id='65'> +4.7802453e+02 </wgt>
<wgt id='66'> +5.0987901e+02 </wgt>
<wgt id='67'> +5.0810559e+02 </wgt>
<wgt id='68'> +6.0962519e+02 </wgt>
<wgt id='69'> +5.4419789e+02 </wgt>
<wgt id='70'> +5.3980857e+02 </wgt>
<wgt id='71'> +4.7490179e+02 </wgt>
<wgt id='72'> +4.6221715e+02 </wgt>
<wgt id='73'> +4.5852085e+02 </wgt>
<wgt id='74'> +5.7611600e+02 </wgt>
<wgt id='75'> +5.4736296e+02 </wgt>
<wgt id='76'> +5.1634230e+02 </wgt>
<wgt id='77'> +4.7800283e+02 </wgt>
<wgt id='78'> +4.4010411e+02 </wgt>
<wgt id='79'> +5.3497115e+02 </wgt>
<wgt id='80'> +4.5177609e+02 </wgt>
<wgt id='81'> +5.1956948e+02 </wgt>
<wgt id='82'> +4.9506720e+02 </wgt>
<wgt id='83'> +5.0139648e+02 </wgt>
<wgt id='84'> +5.0161876e+02 </wgt>
<wgt id='85'> +4.6334405e+02 </wgt>
<wgt id='86'> +5.2850914e+02 </wgt>
<wgt id='87'> +4.9873180e+02 </wgt>
<wgt id='88'> +4.9700401e+02 </wgt>
<wgt id='89'> +4.3805146e+02 </wgt>
<wgt id='90'> +4.7488306e+02 </wgt>
<wgt id='91'> +4.4973870e+02 </wgt>
<wgt id='92'> +4.6940330e+02 </wgt>
<wgt id='93'> +5.0938765e+02 </wgt>
<wgt id='94'> +4.6540850e+02 </wgt>
<wgt id='95'> +5.2588815e+02 </wgt>
<wgt id='96'> +5.3223340e+02 </wgt>
<wgt id='97'> +4.6227766e+02 </wgt>
<wgt id='98'> +5.3829818e+02 </wgt>
<wgt id='99'> +4.2871981e+02 </wgt>
<wgt id='100'> +3.9372389e+02 </wgt>
<wgt id='101'> +5.8698926e+02 </wgt>
<wgt id='102'> +5.6324943e+02 </wgt>
<wgt id='103'> +4.8995189e+02 </wgt>
<wgt id='104'> +5.3911562e+02 </wgt>
<wgt id='105'> +5.1724169e+02 </wgt>
<wgt id='106'> +4.8502149e+02 </wgt>
<wgt id='107'> +4.8631233e+02 </wgt>
<wgt id='108'> +4.6706732e+02 </wgt>
<wgt id='109'> +4.9503193e+02 </wgt>
<wgt id='110'> +4.6634057e+02 </wgt>
<wgt id='111'> +4.9014917e+02 </wgt>
<wgt id='112'> +5.1936686e+02 </wgt>
<wgt id='113'> +5.2185204e+02 </wgt>
<wgt id='114'> +5.1909012e+02 </wgt>
<wgt id='115'> +4.6658252e+02 </wgt>
<wgt id='116'> +5.5229755e+02 </wgt>
<wgt id='117'> +4.9570595e+02 </wgt>
<wgt id='118'> +5.2203446e+02 </wgt>
<wgt id='119'> +5.4456246e+02 </wgt>
<wgt id='120'> +5.0483129e+02 </wgt>
<wgt id='121'> +4.9503448e+02 </wgt>
<wgt id='122'> +4.9375748e+02 </wgt>
<wgt id='123'> +4.8553674e+02 </wgt>
<wgt id='124'> +5.7037228e+02 </wgt>
<wgt id='125'> +6.2837066e+02 </wgt>
<wgt id='126'> +4.9771851e+02 </wgt>
<wgt id='127'> +4.8710009e+02 </wgt>
<wgt id='128'> +4.8385689e+02 </wgt>
<wgt id='129'> +5.2240431e+02 </wgt>
<wgt id='130'> +4.9407161e+02 </wgt>
<wgt id='131'> +4.7177402e+02 </wgt>
<wgt id='132'> +5.4901923e+02 </wgt>
<wgt id='133'> +5.4747538e+02 </wgt>
<wgt id='134'> +5.2550303e+02 </wgt>
<wgt id='135'> +4.8594738e+02 </wgt>
<wgt id='136'> +5.8593913e+02 </wgt>
<wgt id='137'> +5.2518924e+02 </wgt>
<wgt id='138'> +5.1371102e+02 </wgt>
<wgt id='139'> +5.2025999e+02 </wgt>
<wgt id='140'> +4.9561425e+02 </wgt>
<wgt id='141'> +5.6827522e+02 </wgt>
<wgt id='142'> +3.6777903e+02 </wgt>
<wgt id='143'> +5.1669798e+02 </wgt>
<wgt id='144'> +4.6153163e+02 </wgt>
<wgt id='145'> +4.6934621e+02 </wgt>
</rwgt>
</event>
<event>
 4      1 +5.0481800e+02 2.01039800e+02 7.54677100e-03 1.14886500e-01
       21 -1    0    0  503  502 +0.0000000000e+00 +0.0000000000e+00 +2.1291517632e+02 2.1291517632e+02 0.0000000000e+00 0.0000e+00 -1.0000e+00
       21 -1    0    0  501  503 -0.0000000000e+00 -0.0000000000e+00 -1.9537800700e+02 1.9537800700e+02 0.0000000000e+00 0.0000e+00 -1.0000e+00
        6  1    1    2  501    0 +9.1530963448e+01 -4.5935687715e+01 -2.5642499779e+01 2.0266855324e+02 1.7300000000e+02 0.0000e+00 -1.0000e+00
       -6  1    1    2    0  502 -9.1530963448e+01 +4.5935687715e+01 +4.3179669097e+01 2.0562463009e+02 1.7300000000e+02 0.0000e+00 -1.0000e+00
<mgrwt>
<rscale>  2 0.20103981E+03</rscale>
<asrwt>0</asrwt>
<pdfrwt beam="1">  1       21 0.32756181E-01 0.20103981E+03</pdfrwt>
<pdfrwt beam="2">  1       21 0.30058155E-01 0.20103981E+03</pdfrwt>
<totfact> 0.94907298E+04</totfact>
</mgrwt>
<rwgt>
<wgt id='1'> +6.4393522e+02 </wgt>
<wgt id='2'> +5.1186616e+02 </wgt>
<wgt id='3'> +5.0481800e+02 </wgt>
<wgt id='4'> +6.4393523e+02 </wgt>
<wgt id='5'> +5.0234775e+02 </wgt>
<wgt id='6'> +6.1811722e+02 </wgt>
<wgt id='7'> +4.8296026e+02 </wgt>
<wgt id='8'> +4.7619279e+02 </wgt>
<wgt id='9'> +6.1811722e+02 </wgt>
<wgt id='10'> +4.7384007e+02 </wgt>
<wgt id='11'> +5.8306749e+02 </wgt>
<wgt id='12'> +4.5522797e+02 </wgt>
<wgt id='13'> +4.4883737e+02 </wgt>
<wgt id='14'> +5.8306749e+02 </wgt>
<wgt id='15'> +4.4661591e+02 </wgt>
<wgt id='16'> +5.2590363e+02 </wgt>
<wgt id='17'> +4.3096492e+02 </wgt>
<wgt id='18'> +4.2546560e+02 </wgt>
<wgt id='19'> +5.2590363e+02 </wgt>
<wgt id='20'> +4.2351891e+02 </wgt>
<wgt id='21'> +4.0662764e+02 </wgt>
<wgt id='22'> +4.0133999e+02 </wgt>
<wgt id='23'> +5.0481800e+02 </wgt>
<wgt id='24'> +3.9948468e+02 </wgt>
<wgt id='25'> +4.7619279e+02 </wgt>
<wgt id='26'> +3.8327849e+02 </wgt>
<wgt id='27'> +3.7828457e+02 </wgt>
<wgt id='28'> +4.7619279e+02 </wgt>
<wgt id='29'> +3.7653256e+02 </wgt>
<wgt id='30'> +4.4323678e+02 </wgt>
<wgt id='31'> +3.6782944e+02 </wgt>
<wgt id='32'> +3.6340250e+02 </wgt>
<wgt id='33'> +4.4323678e+02 </wgt>
<wgt id='34'> +3.6183378e+02 </wgt>
<wgt id='35'> +4.2546560e+02 </wgt>
<wgt id='36'> +3.4705752e+02 </wgt>
<wgt id='37'> +3.4279612e+02 </wgt>
<wgt id='38'> +4.2546560e+02 </wgt>
<wgt id='39'> +3.4130011e+02 </wgt>
<wgt id='40'> +4.0133999e+02 </wgt>
<wgt id='41'> +3.2712897e+02 </wgt>
<wgt id='42'> +3.2310382e+02 </wgt>
<wgt id='43'> +4.0133999e+02 </wgt>
<wgt id='44'> +3.2169095e+02 </wgt>
<wgt id='45'> +5.0481800e+02 </wgt>
<wgt id='46'> +5.0192662e+02 </wgt>
<wgt id='47'> +5.2160854e+02 </wgt>
<wgt id='48'> +5.0468322e+02 </wgt>
<wgt id='49'> +5.0419768e+02 </wgt>
<wgt id='50'> +5.8177112e+02 </wgt>
<wgt id='51'> +4.9515218e+02 </wgt>
<wgt id='52'> +5.0091414e+02 </wgt>
<wgt id='53'> +5.1371104e+02 </wgt>
<wgt id='54'> +5.0764221e+02 </wgt>
<wgt id='55'> +4.5048000e+02 </wgt>
<wgt id='56'> +4.7315090e+02 </wgt>
<wgt id='57'> +4.9053853e+02 </wgt>
<wgt id='58'> +5.1084944e+02 </wgt>
<wgt id='59'> +4.9311718e+02 </wgt>
<wgt id='60'> +4.8036133e+02 </wgt>
<wgt id='61'> +4.9935210e+02 </wgt>
<wgt id='62'> +4.9785084e+02 </wgt>
<wgt id='63'> +5.0529570e+02 </wgt>
<wgt id='64'> +5.0299807e+02 </wgt>
<wgt id='65'> +5.9767597e+02 </wgt>
<wgt id='66'> +4.9233104e+02 </wgt>
<wgt id='67'> +5.0945018e+02 </wgt>
<wgt id='68'> +5.3679620e+02 </wgt>
<wgt id='69'> +4.8931265e+02 </wgt>
<wgt id='70'> +4.9693031e+02 </wgt>
<wgt id='71'> +5.1450387e+02 </wgt>
<wgt id='72'> +4.9503355e+02 </wgt>
<wgt id='73'> +4.9962104e+02 </wgt>
<wgt id='74'> +5.1642153e+02 </wgt>
<wgt id='75'> +5.1547154e+02 </wgt>
<wgt id='76'> +4.9027769e+02 </wgt>
<wgt id='77'> +4.8418062e+02 </wgt>
<wgt id='78'> +5.0920134e+02 </wgt>
<wgt id='79'> +4.8193619e+02 </wgt>
<wgt id='80'> +5.0190626e+02 </wgt>
<wgt id='81'> +4.9658917e+02 </wgt>
<wgt id='82'> +5.2101305e+02 </wgt>
<wgt id='83'> +5.1438826e+02 </wgt>
<wgt id='84'> +5.5378219e+02 </wgt>
<wgt id='85'> +5.3206753e+02 </wgt>
<wgt id='86'> +4.9986185e+02 </wgt>
<wgt id='87'> +5.0364398e+02 </wgt>
<wgt id='88'> +5.1336347e+02 </wgt>
<wgt id='89'> +5.1539624e+02 </wgt>
<wgt id='90'> +5.0890716e+02 </wgt>
<wgt id='91'> +5.3874605e+02 </wgt>
<wgt id='92'> +4.6894668e+02 </wgt>
<wgt id='93'> +4.9444413e+02 </wgt>
<wgt id='94'> +5.0435457e+02 </wgt>
<wgt id='95'> +4.8460621e+02 </wgt>
<wgt id='96'> +5.4248201e+02 </wgt>
<wgt id='97'> +5.1476771e+02 </wgt>
<wgt id='98'> +4.8051787e+02 </wgt>
<wgt id='99'> +4.9159709e+02 </wgt>
<wgt id='100'> +5.0643386e+02 </wgt>
<wgt id='101'> +5.2348240e+02 </wgt>
<wgt id='102'> +4.8457580e+02 </wgt>
<wgt id='103'> +5.4588557e+02 </wgt>
<wgt id='104'> +5.0268198e+02 </wgt>
<wgt id='105'> +5.2649244e+02 </wgt>
<wgt id='106'> +4.6884197e+02 </wgt>
<wgt id='107'> +5.0379884e+02 </wgt>
<wgt id='108'> +4.5721059e+02 </wgt>
<wgt id='109'> +4.7691305e+02 </wgt>
<wgt id='110'> +5.0661635e+02 </wgt>
<wgt id='111'> +4.9325646e+02 </wgt>
<wgt id='112'> +4.8480349e+02 </wgt>
<wgt id='113'> +4.6552368e+02 </wgt>
<wgt id='114'> +5.0875165e+02 </wgt>
<wgt id='115'> +5.1263083e+02 </wgt>
<wgt id='116'> +4.9985686e+02 </wgt>
<wgt id='117'> +5.1410522e+02 </wgt>
<wgt id='118'> +5.1342819e+02 </wgt>
<wgt id='119'> +4.8625208e+02 </wgt>
<wgt id='120'> +5.0734125e+02 </wgt>
<wgt id='121'> +4.9156874e+02 </wgt>
<wgt id='122'> +4.9872364e+02 </wgt>
<wgt id='123'> +5.1075062e+02 </wgt>
<wgt id='124'> +5.3336708e+02 </wgt>
<wgt id='125'> +5.3498426e+02 </wgt>
<wgt id='126'> +5.2294891e+02 </wgt>
<wgt id='127'> +5.1836486e+02 </wgt>
<wgt id='128'> +4.7229234e+02 </wgt>
<wgt id='129'> +5.7000045e+02 </wgt>
<wgt id='130'> +5.0885907e+02 </wgt>
<wgt id='131'> +5.4141335e+02 </wgt>
<wgt id='132'> +4.9450445e+02 </wgt>
<wgt id='133'> +4.9771977e+02 </wgt>
<wgt id='134'> +4.7337333e+02 </wgt>
<wgt id='135'> +5.1793643e+02 </wgt>
<wgt id='136'> +4.7974678e+02 </wgt>
<wgt id='137'> +4.7428484e+02 </wgt>
<wgt id='138'> +4.5587280e+02 </wgt>
<wgt id='139'> +5.1255675e+02 </wgt>
<wgt id='140'> +5.3912684e+02 </wgt>
<wgt id='141'> +5.0299177e+02 </wgt>
<wgt id='142'> +5.1331884e+02 </wgt>
<wgt id='143'> +4.9776023e+02 </wgt>
<wgt id='144'> +5.0655596e+02 </wgt>
<wgt id='145'> +5.0592619e+02 </wgt>
</rwgt>
</event>
<event>
 4      1 +5.0481800e+02 1.97277600e+02 7.54677100e-03 1.15205600e-01
       21 -1    0    0  501  502 +0.0000000000e+00 +0.0000000000e+00 +1.2866483801e+03 1.2866483801e+03 0.0000000000e+00 0.0000e+00 1.0000e+00
       21 -1    0    0  502  503 -0.0000000000e+00 -0.0000000000e+00 -6.9278736730e+01 6.9278736730e+01 0.0000000000e+00 0.0000e+00 -1.0000e+00
        6  1    1    2  501    0 -8.5801379417e+01 -4.0343438955e+01 +1.1175585728e+03 1.1348372718e+03 1.7300000000e+02 0.0000e+00 1.0000e+00
       -6  1    1    2    0  503 +8.5801379417e+01 +4.0343438955e+01 +9.9811070569e+01 2.2108984505e+02 1.7300000000e+02 0.0000e+00 -1.0000e+00
<mgrwt>
<rscale>  2 0.19727765E+03</rscale>
<asrwt>0</asrwt>
<pdfrwt beam="1">  1       21 0.19794589E+00 0.19727765E+03</pdfrwt>
<pdfrwt beam="2">  1       21 0.10658268E-01 0.19727765E+03</pdfrwt>
<totfact> 0.99944871E+03</totfact>
</mgrwt>
<rwgt>
<wgt id='1'> +6.8566928e+02 </wgt>
<wgt id='2'> +6.1800506e+02 </wgt>
<wgt id='3'> +5.0481800e+02 </wgt>
<wgt id='4'> +6.8566929e+02 </wgt>
<wgt id='5'> +4.2445467e+02 </wgt>
<wgt id='6'> +6.1873634e+02 </wgt>
<wgt id='7'> +5.5464475e+02 </wgt>
<wgt id='8'> +4.5001868e+02 </wgt>
<wgt id='9'> +6.1873635e+02 </wgt>
<wgt id='10'> +3.7928404e+02 </wgt>
<wgt id='11'> +5.5157088e+02 </wgt>
<wgt id='12'> +4.9510034e+02 </wgt>
<wgt id='13'> +4.0278856e+02 </wgt>
<wgt id='14'> +5.5157089e+02 </wgt>
<wgt id='15'> +3.4034179e+02 </wgt>
<wgt id='16'> +5.5942761e+02 </wgt>
<wgt id='17'> +5.1052962e+02 </wgt>
<wgt id='18'> +4.2527388e+02 </wgt>
<wgt id='19'> +5.5942762e+02 </wgt>
<wgt id='20'> +3.6054154e+02 </wgt>
<wgt id='21'> +4.5818812e+02 </wgt>
<wgt id='22'> +3.7910928e+02 </wgt>
<wgt id='23'> +5.0481800e+02 </wgt>
<wgt id='24'> +3.2217256e+02 </wgt>
<wgt id='25'> +4.5001868e+02 </wgt>
<wgt id='26'> +4.0899890e+02 </wgt>
<wgt id='27'> +3.3932121e+02 </wgt>
<wgt id='28'> +4.5001868e+02 </wgt>
<wgt id='29'> +2.8909412e+02 </wgt>
<wgt id='30'> +4.7127866e+02 </wgt>
<wgt id='31'> +4.3208446e+02 </wgt>
<wgt id='32'> +3.6311488e+02 </wgt>
<wgt id='33'> +4.7127866e+02 </wgt>
<wgt id='34'> +3.1004778e+02 </wgt>
<wgt id='35'> +4.2527388e+02 </wgt>
<wgt id='36'> +3.8778547e+02 </wgt>
<wgt id='37'> +3.2369781e+02 </wgt>
<wgt id='38'> +4.2527388e+02 </wgt>
<wgt id='39'> +2.7705237e+02 </wgt>
<wgt id='40'> +3.7910928e+02 </wgt>
<wgt id='41'> +3.4615439e+02 </wgt>
<wgt id='42'> +2.8972525e+02 </wgt>
<wgt id='43'> +3.7910928e+02 </wgt>
<wgt id='44'> +2.4860656e+02 </wgt>
<wgt id='45'> +5.0481800e+02 </wgt>
<wgt id='46'> +5.1877030e+02 </wgt>
<wgt id='47'> +5.2683978e+02 </wgt>
<wgt id='48'> +5.0429595e+02 </wgt>
<wgt id='49'> +4.6505862e+02 </wgt>
<wgt id='50'> +6.0054901e+02 </wgt>
<wgt id='51'> +4.7456593e+02 </wgt>
<wgt id='52'> +4.7070892e+02 </wgt>
<wgt id='53'> +5.0892462e+02 </wgt>
<wgt id='54'> +5.3620357e+02 </wgt>
<wgt id='55'> +5.5987599e+02 </wgt>
<wgt id='56'> +4.8001588e+02 </wgt>
<wgt id='57'> +5.3524378e+02 </wgt>
<wgt id='58'> +4.5656005e+02 </wgt>
<wgt id='59'> +5.4705321e+02 </wgt>
<wgt id='60'> +5.0062977e+02 </wgt>
<wgt id='61'> +4.3996168e+02 </wgt>
<wgt id='62'> +4.6454944e+02 </wgt>
<wgt id='63'> +5.3184387e+02 </wgt>
<wgt id='64'> +5.0455403e+02 </wgt>
<wgt id='65'> +4.7116107e+02 </wgt>
<wgt id='66'> +5.1072750e+02 </wgt>
<wgt id='67'> +5.0856154e+02 </wgt>
<wgt id='68'> +6.1632990e+02 </wgt>
<wgt id='69'> +5.4745228e+02 </wgt>
<wgt id='70'> +5.4437620e+02 </wgt>
<wgt id='71'> +4.7099349e+02 </wgt>
<wgt id='72'> +4.5986736e+02 </wgt>
<wgt id='73'> +4.5595874e+02 </wgt>
<wgt id='74'> +5.8115736e+02 </wgt>
<wgt id='75'> +5.5161401e+02 </wgt>
<wgt id='76'> +5.1793543e+02 </wgt>
<wgt id='77'> +4.7526712e+02 </wgt>
<wgt id='78'> +4.3579236e+02 </wgt>
<wgt id='79'> +5.3845501e+02 </wgt>
<wgt id='80'> +4.4747773e+02 </wgt>
<wgt id='81'> +5.2247928e+02 </wgt>
<wgt id='82'> +4.9651689e+02 </wgt>
<wgt id='83'> +5.0033465e+02 </wgt>
<wgt id='84'> +4.9836942e+02 </wgt>
<wgt id='85'> +4.5876520e+02 </wgt>
<wgt id='86'> +5.3080273e+02 </wgt>
<wgt id='87'> +4.9764667e+02 </wgt>
<wgt id='88'> +4.9550131e+02 </wgt>
<wgt id='89'> +4.3020550e+02 </wgt>
<wgt id='90'> +4.7034064e+02 </wgt>
<wgt id='91'> +4.4324236e+02 </wgt>
<wgt id='92'> +4.7010700e+02 </wgt>
<wgt id='93'> +5.0975589e+02 </wgt>
<wgt id='94'> +4.6334629e+02 </wgt>
<wgt id='95'> +5.2818142e+02 </wgt>
<wgt id='96'> +5.3271105e+02 </wgt>
<wgt id='97'> +4.5863157e+02 </wgt>
<wgt id='98'> +5.4242037e+02 </wgt>
<wgt id='99'> +4.2307184e+02 </wgt>
<wgt id='100'> +3.8586249e+02 </wgt>
<wgt id='101'> +5.8983472e+02 </wgt>
<wgt id='102'> +5.6634594e+02 </wgt>
<wgt id='103'> +4.8540740e+02 </wgt>
<wgt id='104'> +5.4163629e+02 </wgt>
<wgt id='105'> +5.1775795e+02 </wgt>
<wgt id='106'> +4.8725300e+02 </wgt>
<wgt id='107'> +4.8787080e+02 </wgt>
<wgt id='108'> +4.6817850e+02 </wgt>
<wgt id='109'> +4.9625017e+02 </wgt>
<wgt id='110'> +4.6319929e+02 </wgt>
<wgt id='111'> +4.8956236e+02 </wgt>
<wgt id='112'> +5.2327738e+02 </wgt>
<wgt id='113'> +5.2724084e+02 </wgt>
<wgt id='114'> +5.2298575e+02 </wgt>
<wgt id='115'> +4.6509031e+02 </wgt>
<wgt id='116'> +5.5454988e+02 </wgt>
<wgt id='117'> +4.9577364e+02 </wgt>
<wgt id='118'> +5.2088003e+02 </wgt>
<wgt id='119'> +5.5069490e+02 </wgt>
<wgt id='120'> +5.0568719e+02 </wgt>
<wgt id='121'> +4.9420637e+02 </wgt>
<wgt id='122'> +4.9309454e+02 </wgt>
<wgt id='123'> +4.8269805e+02 </wgt>
<wgt id='124'> +5.7194960e+02 </wgt>
<wgt id='125'> +6.3633838e+02 </wgt>
<wgt id='126'> +4.9554197e+02 </wgt>
<wgt id='127'> +4.8406382e+02 </wgt>
<wgt id='128'> +4.8549573e+02 </wgt>
<wgt id='129'> +5.1978791e+02 </wgt>
<wgt id='130'> +4.9592182e+02 </wgt>
<wgt id='131'> +4.6730613e+02 </wgt>
<wgt id='132'> +5.5056317e+02 </wgt>
<wgt id='133'> +5.5021860e+02 </wgt>
<wgt id='134'> +5.2805360e+02 </wgt>
<wgt id='135'> +4.8377443e+02 </wgt>
<wgt id='136'> +5.9179865e+02 </wgt>
<wgt id='137'> +5.2870644e+02 </wgt>
<wgt id='138'> +5.1502196e+02 </wgt>
<wgt id='139'> +5.2060223e+02 </wgt>
<wgt id='140'> +4.9468613e+02 </wgt>
<wgt id='141'> +5.7424136e+02 </wgt>
<wgt id='142'> +3.5570828e+02 </wgt>
<wgt id='143'> +5.1641557e+02 </wgt>
<wgt id='144'> +4.5847795e+02 </wgt>
<wgt id='145'> +4.6574517e+02 </wgt>
</rwgt>
</event>
<event>
 4      1 +5.0481800e+02 2.00259900e+02 7.54677100e-03 1.14952000e-01
       21 -1    0    0  503  502 +0.0000000000e+00 +0.0000000000e+00 +2.5194760419e+02 2.5194760419e+02 0.0000000000e+00 0.0000e+00 -1.0000e+00
       21 -1    0    0  501  503 -0.0000000000e+00 -0.0000000000e+00 -1.7338804273e+02 1.7338804273e+02 0.0000000000e+00 0.0000e+00 -1.0000e+00
        6  1    1    2  501    0 -3.7319999015e+01 -9.3713605013e+01 -2.1606555991e+01 2.0142210741e+02 1.7300000000e+02 0.0000e+00 -1.0000e+00
       -6  1    1    2    0  502 +3.7319999015e+01 +9.3713605013e+01 +1.0016611745e+02 2.2391353951e+02 1.7300000000e+02 0.0000e+00 -1.0000e+00
<mgrwt>
<rscale>  2 0.20025989E+03</rscale>
<asrwt>0</asrwt>
<pdfrwt beam="1">  1       21 0.38761170E-01 0.20025989E+03</pdfrwt>
<pdfrwt beam="2">  1       21 0.26675083E-01 0.20025989E+03</pdfrwt>
<totfact> 0.85577850E+04</totfact>
</mgrwt>
<rwgt>
<wgt id='1'> +6.4517343e+02 </wgt>
<wgt id='2'> +5.2583752e+02 </wgt>
<wgt id='3'> +5.0481800e+02 </wgt>
<wgt id='4'> +6.4517344e+02 </wgt>
<wgt id='5'> +4.9747845e+02 </wgt>
<wgt id='6'> +6.1824661e+02 </wgt>
<wgt id='7'> +4.9576429e+02 </wgt>
<wgt id='8'> +4.7543019e+02 </wgt>
<wgt id='9'> +6.1824661e+02 </wgt>
<wgt id='10'> +4.6847184e+02 </wgt>
<wgt id='11'> +5.8225559e+02 </wgt>
<wgt id='12'> +4.6663601e+02 </wgt>
<wgt id='13'> +4.4747079e+02 </wgt>
<wgt id='14'> +5.8225559e+02 </wgt>
<wgt id='15'> +4.4091480e+02 </wgt>
<wgt id='16'> +5.2680461e+02 </wgt>
<wgt id='17'> +4.4164533e+02 </wgt>
<wgt id='18'> +4.2542749e+02 </wgt>
<wgt id='19'> +5.2680461e+02 </wgt>
<wgt id='20'> +4.1962548e+02 </wgt>
<wgt id='21'> +4.1638715e+02 </wgt>
<wgt id='22'> +4.0066137e+02 </wgt>
<wgt id='23'> +5.0481800e+02 </wgt>
<wgt id='24'> +3.9515827e+02 </wgt>
<wgt id='25'> +4.7543019e+02 </wgt>
<wgt id='26'> +3.9192262e+02 </wgt>
<wgt id='27'> +3.7709902e+02 </wgt>
<wgt id='28'> +4.7543019e+02 </wgt>
<wgt id='29'> +3.7191376e+02 </wgt>
<wgt id='30'> +4.4395636e+02 </wgt>
<wgt id='31'> +3.7638594e+02 </wgt>
<wgt id='32'> +3.6334447e+02 </wgt>
<wgt id='33'> +4.4395636e+02 </wgt>
<wgt id='34'> +3.5866478e+02 </wgt>
<wgt id='35'> +4.2542749e+02 </wgt>
<wgt id='36'> +3.5486001e+02 </wgt>
<wgt id='37'> +3.4219249e+02 </wgt>
<wgt id='38'> +4.2542749e+02 </wgt>
<wgt id='39'> +3.3775201e+02 </wgt>
<wgt id='40'> +4.0066137e+02 </wgt>
<wgt id='41'> +3.3401046e+02 </wgt>
<wgt id='42'> +3.2206861e+02 </wgt>
<wgt id='43'> +4.0066137e+02 </wgt>
<wgt id='44'> +3.1788434e+02 </wgt>
<wgt id='45'> +5.0481800e+02 </wgt>
<wgt id='46'> +5.0278114e+02 </wgt>
<wgt id='47'> +5.2195139e+02 </wgt>
<wgt id='48'> +5.0516951e+02 </wgt>
<wgt id='49'> +5.0413910e+02 </wgt>
<wgt id='50'> +5.8383089e+02 </wgt>
<wgt id='51'> +4.9517209e+02 </wgt>
<wgt id='52'> +5.0124520e+02 </wgt>
<wgt id='53'> +5.1286050e+02 </wgt>
<wgt id='54'> +5.0762307e+02 </wgt>
<wgt id='55'> +4.5058566e+02 </wgt>
<wgt id='56'> +4.7219820e+02 </wgt>
<wgt id='57'> +4.9068042e+02 </wgt>
<wgt id='58'> +5.1014181e+02 </wgt>
<wgt id='59'> +4.9428400e+02 </wgt>
<wgt id='60'> +4.8149915e+02 </wgt>
<wgt id='61'> +4.9733488e+02 </wgt>
<wgt id='62'> +4.9800673e+02 </wgt>
<wgt id='63'> +5.0528538e+02 </wgt>
<wgt id='64'> +5.0215322e+02 </wgt>
<wgt id='65'> +5.9701894e+02 </wgt>
<wgt id='66'> +4.9248304e+02 </wgt>
<wgt id='67'> +5.0943226e+02 </wgt>
<wgt id='68'> +5.3786643e+02 </wgt>
<wgt id='69'> +4.9018796e+02 </wgt>
<wgt id='70'> +4.9678377e+02 </wgt>
<wgt id='71'> +5.1448394e+02 </wgt>
<wgt id='72'> +4.9372909e+02 </wgt>
<wgt id='73'> +4.9926947e+02 </wgt>
<wgt id='74'> +5.1736693e+02 </wgt>
<wgt id='75'> +5.1561240e+02 </wgt>
<wgt id='76'> +4.9016265e+02 </wgt>
<wgt id='77'> +4.8482031e+02 </wgt>
<wgt id='78'> +5.0809815e+02 </wgt>
<wgt id='79'> +4.8257409e+02 </wgt>
<wgt id='80'> +5.0155931e+02 </wgt>
<wgt id='81'> +4.9627445e+02 </wgt>
<wgt id='82'> +5.2035951e+02 </wgt>
<wgt id='83'> +5.1466634e+02 </wgt>
<wgt id='84'> +5.5400269e+02 </wgt>
<wgt id='85'> +5.3192765e+02 </wgt>
<wgt id='86'> +5.0034117e+02 </wgt>
<wgt id='87'> +5.0399345e+02 </wgt>
<wgt id='88'> +5.1344208e+02 </wgt>
<wgt id='89'> +5.1586943e+02 </wgt>
<wgt id='90'> +5.0936195e+02 </wgt>
<wgt id='91'> +5.3836539e+02 </wgt>
<wgt id='92'> +4.6761718e+02 </wgt>
<wgt id='93'> +4.9494806e+02 </wgt>
<wgt id='94'> +5.0375987e+02 </wgt>
<wgt id='95'> +4.8438006e+02 </wgt>
<wgt id='96'> +5.4341202e+02 </wgt>
<wgt id='97'> +5.1419400e+02 </wgt>
<wgt id='98'> +4.8075533e+02 </wgt>
<wgt id='99'> +4.9127771e+02 </wgt>
<wgt id='100'> +5.0497226e+02 </wgt>
<wgt id='101'> +5.2533139e+02 </wgt>
<wgt id='102'> +4.8612605e+02 </wgt>
<wgt id='103'> +5.4660035e+02 </wgt>
<wgt id='104'> +5.0302457e+02 </wgt>
<wgt id='105'> +5.2595004e+02 </wgt>
<wgt id='106'> +4.6752237e+02 </wgt>
<wgt id='107'> +5.0232608e+02 </wgt>
<wgt id='108'> +4.5582060e+02 </wgt>
<wgt id='109'> +4.7611523e+02 </wgt>
<wgt id='110'> +5.0641148e+02 </wgt>
<wgt id='111'> +4.9275311e+02 </wgt>
<wgt id='112'> +4.8391864e+02 </wgt>
<wgt id='113'> +4.6489856e+02 </wgt>
<wgt id='114'> +5.0717550e+02 </wgt>
<wgt id='115'> +5.1063154e+02 </wgt>
<wgt id='116'> +5.0110646e+02 </wgt>
<wgt id='117'> +5.1338087e+02 </wgt>
<wgt id='118'> +5.1457830e+02 </wgt>
<wgt id='119'> +4.8589863e+02 </wgt>
<wgt id='120'> +5.0598635e+02 </wgt>
<wgt id='121'> +4.9126190e+02 </wgt>
<wgt id='122'> +4.9857147e+02 </wgt>
<wgt id='123'> +5.1092873e+02 </wgt>
<wgt id='124'> +5.3488789e+02 </wgt>
<wgt id='125'> +5.3636457e+02 </wgt>
<wgt id='126'> +5.2334707e+02 </wgt>
<wgt id='127'> +5.1879367e+02 </wgt>
<wgt id='128'> +4.7129830e+02 </wgt>
<wgt id='129'> +5.7045151e+02 </wgt>
<wgt id='130'> +5.0888267e+02 </wgt>
<wgt id='131'> +5.4127656e+02 </wgt>
<wgt id='132'> +4.9579199e+02 </wgt>
<wgt id='133'> +4.9870867e+02 </wgt>
<wgt id='134'> +4.7374539e+02 </wgt>
<wgt id='135'> +5.1793143e+02 </wgt>
<wgt id='136'> +4.8079090e+02 </wgt>
<wgt id='137'> +4.7458697e+02 </wgt>
<wgt id='138'> +4.5677013e+02 </wgt>
<wgt id='139'> +5.1311533e+02 </wgt>
<wgt id='140'> +5.3845857e+02 </wgt>
<wgt id='141'> +5.0324156e+02 </wgt>
<wgt id='142'> +5.1202384e+02 </wgt>
<wgt id='143'> +4.9848275e+02 </wgt>
<wgt id='144'> +5.0599731e+02 </wgt>
<wgt id='145'> +5.0595964e+02 </wgt>
</rwgt>
</event>
<event>
 4      1 +5.0481800e+02 2.40617100e+02 7.54677100e-03 1.11938200e-01
       21 -1    0    0  501  502 +0.0000000000e+00 +0.0000000000e+00 +2.5644151415e+02 2.5644151415e+02 0.0000000000e+00 0.0000e+00 1.0000e+00
       21 -1    0    0  502  503 -0.0000000000e+00 -0.0000000000e+00 -2.8586205642e+02 2.8586205642e+02 0.0000000000e+00 0.0000e+00 1.0000e+00
        6  1    1    2  501    0 +6.0177061622e+01 +1.5603311295e+02 +1.0961099251e+02 2.6440722524e+02 1.7300000000e+02 0.0000e+00 1.0000e+00
       -6  1    1    2    0  503 -6.0177061622e+01 -1.5603311295e+02 -1.3903153478e+02 2.7789634532e+02 1.7300000000e+02 0.0000e+00 1.0000e+00
<mgrwt>
<rscale>  2 0.24061715E+03</rscale>
<asrwt>0</asrwt>
<pdfrwt beam="1">  1       21 0.39452541E-01 0.24061715E+03</pdfrwt>
<pdfrwt beam="2">  1       21 0.43978778E-01 0.24061715E+03</pdfrwt>
<totfact> 0.30019500E+04</totfact>
</mgrwt>
<rwgt>
<wgt id='1'> +6.5437943e+02 </wgt>
<wgt id='2'> +5.2380792e+02 </wgt>
<wgt id='3'> +5.0481800e+02 </wgt>
<wgt id='4'> +6.5437944e+02 </wgt>
<wgt id='5'> +4.8378748e+02 </wgt>
<wgt id='6'> +6.1207051e+02 </wgt>
<wgt id='7'> +4.8521795e+02 </wgt>
<wgt id='8'> +4.6772043e+02 </wgt>
<wgt id='9'> +6.1207051e+02 </wgt>
<wgt id='10'> +4.4829924e+02 </wgt>
<wgt id='11'> +5.6709126e+02 </wgt>
<wgt id='12'> +4.4997440e+02 </wgt>
<wgt id='13'> +4.3383575e+02 </wgt>
<wgt id='14'> +5.6709127e+02 </wgt>
<wgt id='15'> +4.1592495e+02 </wgt>
<wgt id='16'> +5.3971317e+02 </wgt>
<wgt id='17'> +4.4216809e+02 </wgt>
<wgt id='18'> +4.2698423e+02 </wgt>
<wgt id='19'> +5.3971318e+02 </wgt>
<wgt id='20'> +4.1015794e+02 </wgt>
<wgt id='21'> +4.0959269e+02 </wgt>
<wgt id='22'> +3.9560643e+02 </wgt>
<wgt id='23'> +5.0481800e+02 </wgt>
<wgt id='24'> +3.8007080e+02 </wgt>
<wgt id='25'> +4.6772042e+02 </wgt>
<wgt id='26'> +3.7984214e+02 </wgt>
<wgt id='27'> +3.6694616e+02 </wgt>
<wgt id='28'> +4.6772043e+02 </wgt>
<wgt id='29'> +3.5262368e+02 </wgt>
<wgt id='30'> +4.5649921e+02 </wgt>
<wgt id='31'> +3.7819596e+02 </wgt>
<wgt id='32'> +3.6585349e+02 </wgt>
<wgt id='33'> +4.5649921e+02 </wgt>
<wgt id='34'> +3.5214231e+02 </wgt>
<wgt id='35'> +4.2698423e+02 </wgt>
<wgt id='36'> +3.5033351e+02 </wgt>
<wgt id='37'> +3.3896800e+02 </wgt>
<wgt id='38'> +4.2698423e+02 </wgt>
<wgt id='39'> +3.2631091e+02 </wgt>
<wgt id='40'> +3.9560643e+02 </wgt>
<wgt id='41'> +3.2488722e+02 </wgt>
<wgt id='42'> +3.1441098e+02 </wgt>
<wgt id='43'> +3.9560643e+02 </wgt>
<wgt id='44'> +3.0274610e+02 </wgt>
<wgt id='45'> +5.0481800e+02 </wgt>
<wgt id='46'> +5.0946166e+02 </wgt>
<wgt id='47'> +5.2609752e+02 </wgt>
<wgt id='48'> +5.0950215e+02 </wgt>
<wgt id='49'> +5.0356130e+02 </wgt>
<wgt id='50'> +6.0320725e+02 </wgt>
<wgt id='51'> +4.9518702e+02 </wgt>
<wgt id='52'> +5.0276687e+02 </wgt>
<wgt id='53'> +5.0762070e+02 </wgt>
<wgt id='54'> +5.0770647e+02 </wgt>
<wgt id='55'> +4.4899843e+02 </wgt>
<wgt id='56'> +4.6471124e+02 </wgt>
<wgt id='57'> +4.9038954e+02 </wgt>
<wgt id='58'> +5.0373152e+02 </wgt>
<wgt id='59'> +5.0138310e+02 </wgt>
<wgt id='60'> +4.8791819e+02 </wgt>
<wgt id='61'> +4.8380253e+02 </wgt>
<wgt id='62'> +4.9927719e+02 </wgt>
<wgt id='63'> +5.0533884e+02 </wgt>
<wgt id='64'> +4.9583202e+02 </wgt>
<wgt id='65'> +5.9657748e+02 </wgt>
<wgt id='66'> +4.9394894e+02 </wgt>
<wgt id='67'> +5.0940855e+02 </wgt>
<wgt id='68'> +5.4635439e+02 </wgt>
<wgt id='69'> +4.9869664e+02 </wgt>
<wgt id='70'> +4.9547379e+02 </wgt>
<wgt id='71'> +5.1409887e+02 </wgt>
<wgt id='72'> +4.8118527e+02 </wgt>
<wgt id='73'> +4.9582337e+02 </wgt>
<wgt id='74'> +5.2497899e+02 </wgt>
<wgt id='75'> +5.1769825e+02 </wgt>
<wgt id='76'> +4.8827352e+02 </wgt>
<wgt id='77'> +4.8886070e+02 </wgt>
<wgt id='78'> +5.0032971e+02 </wgt>
<wgt id='79'> +4.8678384e+02 </wgt>
<wgt id='80'> +4.9878125e+02 </wgt>
<wgt id='81'> +4.9353447e+02 </wgt>
<wgt id='82'> +5.1636024e+02 </wgt>
<wgt id='83'> +5.1836436e+02 </wgt>
<wgt id='84'> +5.5810821e+02 </wgt>
<wgt id='85'> +5.3202298e+02 </wgt>
<wgt id='86'> +5.0470705e+02 </wgt>
<wgt id='87'> +5.0645323e+02 </wgt>
<wgt id='88'> +5.1563450e+02 </wgt>
<wgt id='89'> +5.1899587e+02 </wgt>
<wgt id='90'> +5.1177584e+02 </wgt>
<wgt id='91'> +5.3643075e+02 </wgt>
<wgt id='92'> +4.5494856e+02 </wgt>
<wgt id='93'> +4.9878029e+02 </wgt>
<wgt id='94'> +4.9867432e+02 </wgt>
<wgt id='95'> +4.8114191e+02 </wgt>
<wgt id='96'> +5.5288647e+02 </wgt>
<wgt id='97'> +5.1002321e+02 </wgt>
<wgt id='98'> +4.8226565e+02 </wgt>
<wgt id='99'> +4.8814586e+02 </wgt>
<wgt id='100'> +4.9308991e+02 </wgt>
<wgt id='101'> +5.3954886e+02 </wgt>
<wgt id='102'> +4.9795703e+02 </wgt>
<wgt id='103'> +5.5250901e+02 </wgt>
<wgt id='104'> +5.0686194e+02 </wgt>
<wgt id='105'> +5.2112601e+02 </wgt>
<wgt id='106'> +4.5607953e+02 </wgt>
<wgt id='107'> +4.9072923e+02 </wgt>
<wgt id='108'> +4.4464400e+02 </wgt>
<wgt id='109'> +4.6905065e+02 </wgt>
<wgt id='110'> +5.0392965e+02 </wgt>
<wgt id='111'> +4.8854344e+02 </wgt>
<wgt id='112'> +4.7746452e+02 </wgt>
<wgt id='113'> +4.5931481e+02 </wgt>
<wgt id='114'> +4.9560172e+02 </wgt>
<wgt id='115'> +4.9848969e+02 </wgt>
<wgt id='116'> +5.1146946e+02 </wgt>
<wgt id='117'> +5.0913080e+02 </wgt>
<wgt id='118'> +5.2385467e+02 </wgt>
<wgt id='119'> +4.8237281e+02 </wgt>
<wgt id='120'> +4.9842305e+02 </wgt>
<wgt id='121'> +4.8749513e+02 </wgt>
<wgt id='122'> +4.9708089e+02 </wgt>
<wgt id='123'> +5.1354075e+02 </wgt>
<wgt id='124'> +5.4696652e+02 </wgt>
<wgt id='125'> +5.4742380e+02 </wgt>
<wgt id='126'> +5.2770841e+02 </wgt>
<wgt id='127'> +5.2237455e+02 </wgt>
<wgt id='128'> +4.6494816e+02 </wgt>
<wgt id='129'> +5.7434890e+02 </wgt>
<wgt id='130'> +5.1105949e+02 </wgt>
<wgt id='131'> +5.4075749e+02 </wgt>
<wgt id='132'> +5.0306212e+02 </wgt>
<wgt id='133'> +5.0624370e+02 </wgt>
<wgt id='134'> +4.7523720e+02 </wgt>
<wgt id='135'> +5.1782686e+02 </wgt>
<wgt id='136'> +4.8641311e+02 </wgt>
<wgt id='137'> +4.7757259e+02 </wgt>
<wgt id='138'> +4.6536911e+02 </wgt>
<wgt id='139'> +5.1703665e+02 </wgt>
<wgt id='140'> +5.3416421e+02 </wgt>
<wgt id='141'> +5.0581661e+02 </wgt>
<wgt id='142'> +5.0244665e+02 </wgt>
<wgt id='143'> +5.0244099e+02 </wgt>
<wgt id='144'> +5.0059969e+02 </wgt>
<wgt id='145'> +5.0613620e+02 </wgt>
</rwgt>
</event>
<event>
 4      1 +5.0481800e+02 1.84677200e+02 7.54677100e-03 1.16335200e-01
       21 -1    0    0  501  502 +0.0000000000e+00 +0.0000000000e+00 +2.7796770837e+01 2.7796770837e+01 0.0000000000e+00 0.0000e+00 1.0000e+00
       21 -1    0    0  502  503 -0.0000000000e+00 -0.0000000000e+00 -2.0507516258e+03 2.0507516258e+03 0.0000000000e+00 0.0000e+00 1.0000e+00
        6  1    1    2  501    0 +4.7662918352e+01 -4.3645487121e+01 -3.5278781222e+02 3.9820211298e+02 1.7300000000e+02 0.0000e+00 1.0000e+00
       -6  1    1    2    0  503 -4.7662918352e+01 +4.3645487121e+01 -1.6701670427e+03 1.6803462836e+03 1.7300000000e+02 0.0000e+00 1.0000e+00
<mgrwt>
<rscale>  2 0.18467724E+03</rscale>
<asrwt>0</asrwt>
<pdfrwt beam="1">  1       21 0.42764263E-02 0.18467724E+03</pdfrwt>
<pdfrwt beam="2">  1       21 0.31550025E+00 0.18467724E+03</pdfrwt>
<totfact> 0.98222513E+03</totfact>
</mgrwt>
<rwgt>
<wgt id='1'> +7.1541679e+02 </wgt>
<wgt id='2'> +8.3963155e+02 </wgt>
<wgt id='3'> +5.0481800e+02 </wgt>
<wgt id='4'> +7.1541680e+02 </wgt>
<wgt id='5'> +4.4662507e+02 </wgt>
<wgt id='6'> +6.2068620e+02 </wgt>
<wgt id='7'> +7.2786151e+02 </wgt>
<wgt id='8'> +4.3461010e+02 </wgt>
<wgt id='9'> +6.2068621e+02 </wgt>
<wgt id='10'> +3.8562034e+02 </wgt>
<wgt id='11'> +5.3436385e+02 </wgt>
<wgt id='12'> +6.2803009e+02 </wgt>
<wgt id='13'> +3.7727133e+02 </wgt>
<wgt id='14'> +5.3436385e+02 </wgt>
<wgt id='15'> +3.3579175e+02 </wgt>
<wgt id='16'> +5.8186451e+02 </wgt>
<wgt id='17'> +6.7508278e+02 </wgt>
<wgt id='18'> +4.2448711e+02 </wgt>
<wgt id='19'> +5.8186451e+02 </wgt>
<wgt id='20'> +3.7770410e+02 </wgt>
<wgt id='21'> +5.8521713e+02 </wgt>
<wgt id='22'> +3.6545127e+02 </wgt>
<wgt id='23'> +5.0481800e+02 </wgt>
<wgt id='24'> +3.2611332e+02 </wgt>
<wgt id='25'> +4.3461010e+02 </wgt>
<wgt id='26'> +5.0495041e+02 </wgt>
<wgt id='27'> +3.1723674e+02 </wgt>
<wgt id='28'> +4.3461010e+02 </wgt>
<wgt id='29'> +2.8397403e+02 </wgt>
<wgt id='30'> +4.8927333e+02 </wgt>
<wgt id='31'> +5.6045257e+02 </wgt>
<wgt id='32'> +3.6200952e+02 </wgt>
<wgt id='33'> +4.8927333e+02 </wgt>
<wgt id='34'> +3.2358523e+02 </wgt>
<wgt id='35'> +4.2448710e+02 </wgt>
<wgt id='36'> +4.8584627e+02 </wgt>
<wgt id='37'> +3.1166280e+02 </wgt>
<wgt id='38'> +4.2448711e+02 </wgt>
<wgt id='39'> +2.7938657e+02 </wgt>
<wgt id='40'> +3.6545127e+02 </wgt>
<wgt id='41'> +4.1920897e+02 </wgt>
<wgt id='42'> +2.7054466e+02 </wgt>
<wgt id='43'> +3.6545127e+02 </wgt>
<wgt id='44'> +2.4328516e+02 </wgt>
<wgt id='45'> +5.0481800e+02 </wgt>
<wgt id='46'> +5.0998262e+02 </wgt>
<wgt id='47'> +6.0111552e+02 </wgt>
<wgt id='48'> +5.0637371e+02 </wgt>
<wgt id='49'> +4.3805752e+02 </wgt>
<wgt id='50'> +6.0417218e+02 </wgt>
<wgt id='51'> +4.8022921e+02 </wgt>
<wgt id='52'> +4.0441068e+02 </wgt>
<wgt id='53'> +5.6514390e+02 </wgt>
<wgt id='54'> +5.3737883e+02 </wgt>
<wgt id='55'> +6.4193654e+02 </wgt>
<wgt id='56'> +4.9350521e+02 </wgt>
<wgt id='57'> +5.5524042e+02 </wgt>
<wgt id='58'> +4.1751881e+02 </wgt>
<wgt id='59'> +5.4869446e+02 </wgt>
<wgt id='60'> +4.8409880e+02 </wgt>
<wgt id='61'> +3.8030309e+02 </wgt>
<wgt id='62'> +4.2760887e+02 </wgt>
<wgt id='63'> +5.3981247e+02 </wgt>
<wgt id='64'> +5.0882299e+02 </wgt>
<wgt id='65'> +3.7489464e+02 </wgt>
<wgt id='66'> +5.2397456e+02 </wgt>
<wgt id='67'> +4.9201347e+02 </wgt>
<wgt id='68'> +7.6203743e+02 </wgt>
<wgt id='69'> +6.1010999e+02 </wgt>
<wgt id='70'> +6.8042002e+02 </wgt>
<wgt id='71'> +4.2386283e+02 </wgt>
<wgt id='72'> +4.0522769e+02 </wgt>
<wgt id='73'> +4.3131067e+02 </wgt>
<wgt id='74'> +6.8331262e+02 </wgt>
<wgt id='75'> +6.5067888e+02 </wgt>
<wgt id='76'> +5.1279022e+02 </wgt>
<wgt id='77'> +4.2846840e+02 </wgt>
<wgt id='78'> +4.0182841e+02 </wgt>
<wgt id='79'> +5.8951852e+02 </wgt>
<wgt id='80'> +3.7649635e+02 </wgt>
<wgt id='81'> +5.6547836e+02 </wgt>
<wgt id='82'> +4.9573655e+02 </wgt>
<wgt id='83'> +5.0355382e+02 </wgt>
<wgt id='84'> +4.2941125e+02 </wgt>
<wgt id='85'> +4.1124830e+02 </wgt>
<wgt id='86'> +5.6712819e+02 </wgt>
<wgt id='87'> +4.6875480e+02 </wgt>
<wgt id='88'> +5.4149522e+02 </wgt>
<wgt id='89'> +3.0444098e+02 </wgt>
<wgt id='90'> +3.9950442e+02 </wgt>
<wgt id='91'> +3.6476888e+02 </wgt>
<wgt id='92'> +4.7549471e+02 </wgt>
<wgt id='93'> +5.3766698e+02 </wgt>
<wgt id='94'> +4.3072264e+02 </wgt>
<wgt id='95'> +5.2351241e+02 </wgt>
<wgt id='96'> +5.0122359e+02 </wgt>
<wgt id='97'> +4.1544524e+02 </wgt>
<wgt id='98'> +6.3452233e+02 </wgt>
<wgt id='99'> +3.7011804e+02 </wgt>
<wgt id='100'> +3.1073374e+02 </wgt>
<wgt id='101'> +6.1974383e+02 </wgt>
<wgt id='102'> +6.0745440e+02 </wgt>
<wgt id='103'> +4.1640108e+02 </wgt>
<wgt id='104'> +5.7529099e+02 </wgt>
<wgt id='105'> +5.1651466e+02 </wgt>
<wgt id='106'> +5.2415632e+02 </wgt>
<wgt id='107'> +5.3245340e+02 </wgt>
<wgt id='108'> +4.6497324e+02 </wgt>
<wgt id='109'> +5.1126274e+02 </wgt>
<wgt id='110'> +3.9154165e+02 </wgt>
<wgt id='111'> +4.7006192e+02 </wgt>
<wgt id='112'> +5.2464963e+02 </wgt>
<wgt id='113'> +6.3757250e+02 </wgt>
<wgt id='114'> +4.6813439e+02 </wgt>
<wgt id='115'> +4.8546636e+02 </wgt>
<wgt id='116'> +5.8946566e+02 </wgt>
<wgt id='117'> +5.2310453e+02 </wgt>
<wgt id='118'> +4.9711462e+02 </wgt>
<wgt id='119'> +5.5267013e+02 </wgt>
<wgt id='120'> +4.9060679e+02 </wgt>
<wgt id='121'> +4.5396089e+02 </wgt>
<wgt id='122'> +4.7046004e+02 </wgt>
<wgt id='123'> +4.3909026e+02 </wgt>
<wgt id='124'> +5.6530774e+02 </wgt>
<wgt id='125'> +7.5398735e+02 </wgt>
<wgt id='126'> +4.7263797e+02 </wgt>
<wgt id='127'> +4.4736436e+02 </wgt>
<wgt id='128'> +5.0780229e+02 </wgt>
<wgt id='129'> +4.6600890e+02 </wgt>
<wgt id='130'> +4.8274288e+02 </wgt>
<wgt id='131'> +4.1890141e+02 </wgt>
<wgt id='132'> +5.3450593e+02 </wgt>
<wgt id='133'> +5.6762649e+02 </wgt>
<wgt id='134'> +5.7980716e+02 </wgt>
<wgt id='135'> +4.6743291e+02 </wgt>
<wgt id='136'> +6.3441514e+02 </wgt>
<wgt id='137'> +6.1731604e+02 </wgt>
<wgt id='138'> +5.7522085e+02 </wgt>
<wgt id='139'> +5.3128128e+02 </wgt>
<wgt id='140'> +4.7980009e+02 </wgt>
<wgt id='141'> +6.8947644e+02 </wgt>
<wgt id='142'> +2.1194924e+02 </wgt>
<wgt id='143'> +5.1143448e+02 </wgt>
<wgt id='144'> +4.2445416e+02 </wgt>
<wgt id='145'> +4.4989293e+02 </wgt>
</rwgt>
</event>
<event>
 4      1 +5.0481800e+02 1.83026000e+02 7.54677100e-03 1.16490600e-01
       21 -1    0    0  503  502 +0.0000000000e+00 +0.0000000000e+00 +1.0393223304e+02 1.0393223304e+02 0.0000000000e+00 0.0000e+00 1.0000e+00
       21 -1    0    0  501  503 -0.0000000000e+00 -0.0000000000e+00 -3.3267841758e+02 3.3267841758e+02 0.0000000000e+00 0.0000e+00 1.0000e+00
        6  1    1    2  501    0 -2.8887279164e+01 -5.2297692321e+01 -1.5291054171e+02 2.3849561272e+02 1.7300000000e+02 0.0000e+00 1.0000e+00
       -6  1    1    2    0  502 +2.8887279164e+01 +5.2297692321e+01 -7.5835642825e+01 1.9811503790e+02 1.7300000000e+02 0.0000e+00 1.0000e+00
<mgrwt>
<rscale>  2 0.18302602E+03</rscale>
<asrwt>0</asrwt>
<pdfrwt beam="1">  1       21 0.15989575E-01 0.18302602E+03</pdfrwt>
<pdfrwt beam="2">  1       21 0.51181294E-01 0.18302602E+03</pdfrwt>
<totfact> 0.12711197E+05</totfact>
</mgrwt>
<rwgt>
<wgt id='1'> +6.4206815e+02 </wgt>
<wgt id='2'> +6.1210754e+02 </wgt>
<wgt id='3'> +5.0481800e+02 </wgt>
<wgt id='4'> +6.4206815e+02 </wgt>
<wgt id='5'> +5.0213578e+02 </wgt>
<wgt id='6'> +6.2092812e+02 </wgt>
<wgt id='7'> +5.8952263e+02 </wgt>
<wgt id='8'> +4.7854300e+02 </wgt>
<wgt id='9'> +6.2092812e+02 </wgt>
<wgt id='10'> +4.7591044e+02 </wgt>
<wgt id='11'> +5.8860976e+02 </wgt>
<wgt id='12'> +5.5829068e+02 </wgt>
<wgt id='13'> +4.5272772e+02 </wgt>
<wgt id='14'> +5.8860976e+02 </wgt>
<wgt id='15'> +4.5022724e+02 </wgt>
<wgt id='16'> +5.2200497e+02 </wgt>
<wgt id='17'> +5.0104278e+02 </wgt>
<wgt id='18'> +4.2437107e+02 </wgt>
<wgt id='19'> +5.2200497e+02 </wgt>
<wgt id='20'> +4.2231834e+02 </wgt>
<wgt id='21'> +4.8255583e+02 </wgt>
<wgt id='22'> +4.0228321e+02 </wgt>
<wgt id='23'> +5.0481800e+02 </wgt>
<wgt id='24'> +4.0026167e+02 </wgt>
<wgt id='25'> +4.7854300e+02 </wgt>
<wgt id='26'> +4.5699080e+02 </wgt>
<wgt id='27'> +3.8058181e+02 </wgt>
<wgt id='28'> +4.7854300e+02 </wgt>
<wgt id='29'> +3.7866097e+02 </wgt>
<wgt id='30'> +4.3881915e+02 </wgt>
<wgt id='31'> +4.2264763e+02 </wgt>
<wgt id='32'> +3.6185135e+02 </wgt>
<wgt id='33'> +4.3881915e+02 </wgt>
<wgt id='34'> +3.6020485e+02 </wgt>
<wgt id='35'> +4.2437107e+02 </wgt>
<wgt id='36'> +4.0705322e+02 </wgt>
<wgt id='37'> +3.4301754e+02 </wgt>
<wgt id='38'> +4.2437107e+02 </wgt>
<wgt id='39'> +3.4139223e+02 </wgt>
<wgt id='40'> +4.0228321e+02 </wgt>
<wgt id='41'> +3.8548820e+02 </wgt>
<wgt id='42'> +3.2451326e+02 </wgt>
<wgt id='43'> +4.0228321e+02 </wgt>
<wgt id='44'> +3.2296850e+02 </wgt>
<wgt id='45'> +5.0481800e+02 </wgt>
<wgt id='46'> +5.0306213e+02 </wgt>
<wgt id='47'> +5.1981000e+02 </wgt>
<wgt id='48'> +5.0449916e+02 </wgt>
<wgt id='49'> +5.0367686e+02 </wgt>
<wgt id='50'> +5.7867097e+02 </wgt>
<wgt id='51'> +4.9524545e+02 </wgt>
<wgt id='52'> +5.0217024e+02 </wgt>
<wgt id='53'> +5.1095972e+02 </wgt>
<wgt id='54'> +5.0767325e+02 </wgt>
<wgt id='55'> +4.5608869e+02 </wgt>
<wgt id='56'> +4.7288736e+02 </wgt>
<wgt id='57'> +4.9346752e+02 </wgt>
<wgt id='58'> +5.1038812e+02 </wgt>
<wgt id='59'> +4.9777296e+02 </wgt>
<wgt id='60'> +4.8519046e+02 </wgt>
<wgt id='61'> +4.9333819e+02 </wgt>
<wgt id='62'> +4.9769507e+02 </wgt>
<wgt id='63'> +5.0524686e+02 </wgt>
<wgt id='64'> +5.0199271e+02 </wgt>
<wgt id='65'> +5.8831839e+02 </wgt>
<wgt id='66'> +4.9271798e+02 </wgt>
<wgt id='67'> +5.0919907e+02 </wgt>
<wgt id='68'> +5.3781538e+02 </wgt>
<wgt id='69'> +4.8916004e+02 </wgt>
<wgt id='70'> +4.9744911e+02 </wgt>
<wgt id='71'> +5.1432265e+02 </wgt>
<wgt id='72'> +4.9707538e+02 </wgt>
<wgt id='73'> +4.9954816e+02 </wgt>
<wgt id='74'> +5.1734619e+02 </wgt>
<wgt id='75'> +5.1438673e+02 </wgt>
<wgt id='76'> +4.9227301e+02 </wgt>
<wgt id='77'> +4.8636053e+02 </wgt>
<wgt id='78'> +5.0621226e+02 </wgt>
<wgt id='79'> +4.8456102e+02 </wgt>
<wgt id='80'> +5.0124236e+02 </wgt>
<wgt id='81'> +4.9702196e+02 </wgt>
<wgt id='82'> +5.1780876e+02 </wgt>
<wgt id='83'> +5.1236942e+02 </wgt>
<wgt id='84'> +5.4959522e+02 </wgt>
<wgt id='85'> +5.2872936e+02 </wgt>
<wgt id='86'> +4.9992726e+02 </wgt>
<wgt id='87'> +5.0424331e+02 </wgt>
<wgt id='88'> +5.1115559e+02 </wgt>
<wgt id='89'> +5.1526919e+02 </wgt>
<wgt id='90'> +5.1046136e+02 </wgt>
<wgt id='91'> +5.3546487e+02 </wgt>
<wgt id='92'> +4.7171705e+02 </wgt>
<wgt id='93'> +4.9533722e+02 </wgt>
<wgt id='94'> +5.0382439e+02 </wgt>
<wgt id='95'> +4.8756487e+02 </wgt>
<wgt id='96'> +5.3936686e+02 </wgt>
<wgt id='97'> +5.1308682e+02 </wgt>
<wgt id='98'> +4.8250435e+02 </wgt>
<wgt id='99'> +4.9135016e+02 </wgt>
<wgt id='100'> +5.0425606e+02 </wgt>
<wgt id='101'> +5.2611255e+02 </wgt>
<wgt id='102'> +4.8804939e+02 </wgt>
<wgt id='103'> +5.4440183e+02 </wgt>
<wgt id='104'> +5.0213239e+02 </wgt>
<wgt id='105'> +5.2632169e+02 </wgt>
<wgt id='106'> +4.7028551e+02 </wgt>
<wgt id='107'> +5.0230905e+02 </wgt>
<wgt id='108'> +4.5778068e+02 </wgt>
<wgt id='109'> +4.7815045e+02 </wgt>
<wgt id='110'> +5.0689505e+02 </wgt>
<wgt id='111'> +4.9363601e+02 </wgt>
<wgt id='112'> +4.8413567e+02 </wgt>
<wgt id='113'> +4.6727007e+02 </wgt>
<wgt id='114'> +5.0688089e+02 </wgt>
<wgt id='115'> +5.0651051e+02 </wgt>
<wgt id='116'> +5.0111346e+02 </wgt>
<wgt id='117'> +5.1129868e+02 </wgt>
<wgt id='118'> +5.1420937e+02 </wgt>
<wgt id='119'> +4.8791166e+02 </wgt>
<wgt id='120'> +5.0283712e+02 </wgt>
<wgt id='121'> +4.9336962e+02 </wgt>
<wgt id='122'> +4.9922777e+02 </wgt>
<wgt id='123'> +5.0916394e+02 </wgt>
<wgt id='124'> +5.3460739e+02 </wgt>
<wgt id='125'> +5.3640832e+02 </wgt>
<wgt id='126'> +5.2113547e+02 </wgt>
<wgt id='127'> +5.1774632e+02 </wgt>
<wgt id='128'> +4.7049415e+02 </wgt>
<wgt id='129'> +5.6793418e+02 </wgt>
<wgt id='130'> +5.0601371e+02 </wgt>
<wgt id='131'> +5.3884164e+02 </wgt>
<wgt id='132'> +5.0037397e+02 </wgt>
<wgt id='133'> +4.9968356e+02 </wgt>
<wgt id='134'> +4.7690458e+02 </wgt>
<wgt id='135'> +5.1714038e+02 </wgt>
<wgt id='136'> +4.8595995e+02 </wgt>
<wgt id='137'> +4.7508135e+02 </wgt>
<wgt id='138'> +4.5675090e+02 </wgt>
<wgt id='139'> +5.1332666e+02 </wgt>
<wgt id='140'> +5.3592171e+02 </wgt>
<wgt id='141'> +5.0322429e+02 </wgt>
<wgt id='142'> +5.0964089e+02 </wgt>
<wgt id='143'> +5.0106991e+02 </wgt>
<wgt id='144'> +5.0668988e+02 </wgt>
<wgt id='145'> +5.0576873e+02 </wgt>
</rwgt>
</event>
<event>
 4      1 +5.0481800e+02 1.79953500e+02 7.54677100e-03 1.16784800e-01
       21 -1    0    0  501  502 +0.0000000000e+00 +0.0000000000e+00 +1.8002297218e+01 1.8002297218e+01 0.0000000000e+00 0.0000e+00 1.0000e+00
       21 -1    0    0  502  503 -0.0000000000e+00 -0.0000000000e+00 -2.3232600240e+03 2.3232600240e+03 0.0000000000e+00 0.0000e+00 1.0000e+00
        6  1    1    2  501    0 +6.7069906217e-01 +4.9536037434e+01 -5.9645519510e+02 6.2301048836e+02 1.7300000000e+02 0.0000e+00 -1.0000e+00
       -6  1    1    2    0  503 -6.7069906217e-01 -4.9536037434e+01 -1.7088025317e+03 1.7182518328e+03 1.7300000000e+02 0.0000e+00 -1.0000e+00
<mgrwt>
<rscale>  2 0.17995352E+03</rscale>
<asrwt>0</asrwt>
<pdfrwt beam="1">  1       21 0.27695827E-02 0.17995352E+03</pdfrwt>
<pdfrwt beam="2">  1       21 0.35742480E+00 0.17995352E+03</pdfrwt>
<totfact> 0.11591913E+04</totfact>
</mgrwt>
<rwgt>
<wgt id='1'> +7.2455615e+02 </wgt>
<wgt id='2'> +1.0013109e+03 </wgt>
<wgt id='3'> +5.0481800e+02 </wgt>
<wgt id='4'> +7.2455615e+02 </wgt>
<wgt id='5'> +4.7377137e+02 </wgt>
<wgt id='6'> +6.2143910e+02 </wgt>
<wgt id='7'> +8.5413459e+02 </wgt>
<wgt id='8'> +4.3055527e+02 </wgt>
<wgt id='9'> +6.2143910e+02 </wgt>
<wgt id='10'> +4.0458085e+02 </wgt>
<wgt id='11'> +5.3002047e+02 </wgt>
<wgt id='12'> +7.3206074e+02 </wgt>
<wgt id='13'> +3.7088652e+02 </wgt>
<wgt id='14'> +5.3002048e+02 </wgt>
<wgt id='15'> +3.4916553e+02 </wgt>
<wgt id='16'> +5.8858380e+02 </wgt>
<wgt id='17'> +7.9653487e+02 </wgt>
<wgt id='18'> +4.2414652e+02 </wgt>
<wgt id='19'> +5.8858380e+02 </wgt>
<wgt id='20'> +3.9944982e+02 </wgt>
<wgt id='21'> +6.7945726e+02 </wgt>
<wgt id='22'> +3.6175120e+02 </wgt>
<wgt id='23'> +5.0481800e+02 </wgt>
<wgt id='24'> +3.4111337e+02 </wgt>
<wgt id='25'> +4.3055527e+02 </wgt>
<wgt id='26'> +5.8234848e+02 </wgt>
<wgt id='27'> +3.1161770e+02 </wgt>
<wgt id='28'> +4.3055527e+02 </wgt>
<wgt id='29'> +2.9439117e+02 </wgt>
<wgt id='30'> +4.9452628e+02 </wgt>
<wgt id='31'> +6.5082778e+02 </wgt>
<wgt id='32'> +3.6154812e+02 </wgt>
<wgt id='33'> +4.9452628e+02 </wgt>
<wgt id='34'> +3.4128692e+02 </wgt>
<wgt id='35'> +4.2414651e+02 </wgt>
<wgt id='36'> +5.5516673e+02 </wgt>
<wgt id='37'> +3.0836152e+02 </wgt>
<wgt id='38'> +4.2414652e+02 </wgt>
<wgt id='39'> +2.9144469e+02 </wgt>
<wgt id='40'> +3.6175119e+02 </wgt>
<wgt id='41'> +4.7582169e+02 </wgt>
<wgt id='42'> +2.6562706e+02 </wgt>
<wgt id='43'> +3.6175120e+02 </wgt>
<wgt id='44'> +2.5152560e+02 </wgt>
<wgt id='45'> +5.0481800e+02 </wgt>
<wgt id='46'> +5.0864320e+02 </wgt>
<wgt id='47'> +6.2951720e+02 </wgt>
<wgt id='48'> +5.0477986e+02 </wgt>
<wgt id='49'> +4.3155041e+02 </wgt>
<wgt id='50'> +6.2517641e+02 </wgt>
<wgt id='51'> +4.9895817e+02 </wgt>
<wgt id='52'> +3.8878715e+02 </wgt>
<wgt id='53'> +5.8882466e+02 </wgt>
<wgt id='54'> +5.3032743e+02 </wgt>
<wgt id='55'> +6.5511488e+02 </wgt>
<wgt id='56'> +4.8950424e+02 </wgt>
<wgt id='57'> +5.6963003e+02 </wgt>
<wgt id='58'> +4.0622820e+02 </wgt>
<wgt id='59'> +5.5596317e+02 </wgt>
<wgt id='60'> +4.8844624e+02 </wgt>
<wgt id='61'> +3.7099978e+02 </wgt>
<wgt id='62'> +4.2183181e+02 </wgt>
<wgt id='63'> +5.3947816e+02 </wgt>
<wgt id='64'> +5.0912537e+02 </wgt>
<wgt id='65'> +3.5558974e+02 </wgt>
<wgt id='66'> +5.1662495e+02 </wgt>
<wgt id='67'> +4.7673781e+02 </wgt>
<wgt id='68'> +8.2341943e+02 </wgt>
<wgt id='69'> +6.1233037e+02 </wgt>
<wgt id='70'> +7.3756320e+02 </wgt>
<wgt id='71'> +4.1784310e+02 </wgt>
<wgt id='72'> +3.9012582e+02 </wgt>
<wgt id='73'> +4.1497304e+02 </wgt>
<wgt id='74'> +7.2482151e+02 </wgt>
<wgt id='75'> +6.7283295e+02 </wgt>
<wgt id='76'> +4.9788823e+02 </wgt>
<wgt id='77'> +4.1477563e+02 </wgt>
<wgt id='78'> +4.0090258e+02 </wgt>
<wgt id='79'> +5.9202250e+02 </wgt>
<wgt id='80'> +3.4177509e+02 </wgt>
<wgt id='81'> +5.6951253e+02 </wgt>
<wgt id='82'> +4.8146769e+02 </wgt>
<wgt id='83'> +5.0288131e+02 </wgt>
<wgt id='84'> +3.9871128e+02 </wgt>
<wgt id='85'> +4.0871188e+02 </wgt>
<wgt id='86'> +5.5765603e+02 </wgt>
<wgt id='87'> +4.5709173e+02 </wgt>
<wgt id='88'> +5.6436908e+02 </wgt>
<wgt id='89'> +2.7355560e+02 </wgt>
<wgt id='90'> +3.8535875e+02 </wgt>
<wgt id='91'> +3.4830202e+02 </wgt>
<wgt id='92'> +4.6702066e+02 </wgt>
<wgt id='93'> +5.5473385e+02 </wgt>
<wgt id='94'> +4.0496915e+02 </wgt>
<wgt id='95'> +5.2164193e+02 </wgt>
<wgt id='96'> +4.6885638e+02 </wgt>
<wgt id='97'> +4.0668335e+02 </wgt>
<wgt id='98'> +6.6408063e+02 </wgt>
<wgt id='99'> +3.6205435e+02 </wgt>
<wgt id='100'> +2.9689142e+02 </wgt>
<wgt id='101'> +6.4237366e+02 </wgt>
<wgt id='102'> +6.2853772e+02 </wgt>
<wgt id='103'> +4.0638396e+02 </wgt>
<wgt id='104'> +5.7498953e+02 </wgt>
<wgt id='105'> +5.2313747e+02 </wgt>
<wgt id='106'> +5.2688835e+02 </wgt>
<wgt id='107'> +5.4219105e+02 </wgt>
<wgt id='108'> +4.5541566e+02 </wgt>
<wgt id='109'> +5.2133340e+02 </wgt>
<wgt id='110'> +3.5798034e+02 </wgt>
<wgt id='111'> +4.6467434e+02 </wgt>
<wgt id='112'> +5.1806912e+02 </wgt>
<wgt id='113'> +6.6388040e+02 </wgt>
<wgt id='114'> +4.0776168e+02 </wgt>
<wgt id='115'> +4.9113009e+02 </wgt>
<wgt id='116'> +6.0415222e+02 </wgt>
<wgt id='117'> +5.3715345e+02 </wgt>
<wgt id='118'> +4.9866091e+02 </wgt>
<wgt id='119'> +5.3227776e+02 </wgt>
<wgt id='120'> +4.7579482e+02 </wgt>
<wgt id='121'> +4.4586044e+02 </wgt>
<wgt id='122'> +4.5759844e+02 </wgt>
<wgt id='123'> +4.2822377e+02 </wgt>
<wgt id='124'> +5.6935783e+02 </wgt>
<wgt id='125'> +8.0407601e+02 </wgt>
<wgt id='126'> +4.6872775e+02 </wgt>
<wgt id='127'> +4.4670164e+02 </wgt>
<wgt id='128'> +5.0533381e+02 </wgt>
<wgt id='129'> +4.5857453e+02 </wgt>
<wgt id='130'> +4.5230004e+02 </wgt>
<wgt id='131'> +4.1435548e+02 </wgt>
<wgt id='132'> +5.3175725e+02 </wgt>
<wgt id='133'> +5.6352234e+02 </wgt>
<wgt id='134'> +6.0395302e+02 </wgt>
<wgt id='135'> +4.7100731e+02 </wgt>
<wgt id='136'> +6.5004790e+02 </wgt>
<wgt id='137'> +6.2159960e+02 </wgt>
<wgt id='138'> +6.0482083e+02 </wgt>
<wgt id='139'> +5.4193457e+02 </wgt>
<wgt id='140'> +4.7030111e+02 </wgt>
<wgt id='141'> +7.2983835e+02 </wgt>
<wgt id='142'> +1.9940210e+02 </wgt>
<wgt id='143'> +5.2064405e+02 </wgt>
<wgt id='144'> +4.1885526e+02 </wgt>
<wgt id='145'> +4.3562089e+02 </wgt>
</rwgt>
</event>
<event>
 4      1 +5.0481800e+02 1.74759000e+02 7.54677100e-03 1.17297400e-01
       21 -1    0    0  501  502 +0.0000000000e+00 +0.0000000000e+00 +5.3641991444e+01 5.3641991444e+01 0.0000000000e+00 0.0000e+00 1.0000e+00
       21 -1    0    0  502  503 -0.0000000000e+00 -0.0000000000e+00 -9.5418398309e+02 9.5418398309e+02 0.0000000000e+00 0.0000e+00 1.0000e+00
        6  1    1    2  501    0 -1.6556515361e+01 -1.8373721789e+01 -1.3024891643e+02 2.1795754652e+02 1.7300000000e+02 0.0000e+00 1.0000e+00
       -6  1    1    2    0  503 +1.6556515361e+01 +1.8373721789e+01 -7.7029307521e+02 7.8986842801e+02 1.7300000000e+02 0.0000e+00 1.0000e+00
<mgrwt>
<rscale>  2 0.17475901E+03</rscale>
<asrwt>0</asrwt>
<pdfrwt beam="1">  1       21 0.82526141E-02 0.17475901E+03</pdfrwt>
<pdfrwt beam="2">  1       21 0.14679754E+00 0.17475901E+03</pdfrwt>
<totfact> 0.36347967E+04</totfact>
</mgrwt>
<rwgt>
<wgt id='1'> +6.6458708e+02 </wgt>
<wgt id='2'> +1.0075622e+03 </wgt>
<wgt id='3'> +5.0481800e+02 </wgt>
<wgt id='4'> +6.6458708e+02 </wgt>
<wgt id='5'> +4.5766563e+02 </wgt>
<wgt id='6'> +6.2231124e+02 </wgt>
<wgt id='7'> +9.5494296e+02 </wgt>
<wgt id='8'> +4.6444247e+02 </wgt>
<wgt id='9'> +6.2231124e+02 </wgt>
<wgt id='10'> +4.2073737e+02 </wgt>
<wgt id='11'> +5.7253856e+02 </wgt>
<wgt id='12'> +8.9693375e+02 </wgt>
<wgt id='13'> +4.2723314e+02 </wgt>
<wgt id='14'> +5.7253856e+02 </wgt>
<wgt id='15'> +3.8722883e+02 </wgt>
<wgt id='16'> +5.3911210e+02 </wgt>
<wgt id='17'> +7.8754982e+02 </wgt>
<wgt id='18'> +4.2373861e+02 </wgt>
<wgt id='19'> +5.3911210e+02 </wgt>
<wgt id='20'> +3.8662276e+02 </wgt>
<wgt id='21'> +7.4642056e+02 </wgt>
<wgt id='22'> +3.8984783e+02 </wgt>
<wgt id='23'> +5.0481800e+02 </wgt>
<wgt id='24'> +3.5542683e+02 </wgt>
<wgt id='25'> +4.6444247e+02 </wgt>
<wgt id='26'> +7.0107830e+02 </wgt>
<wgt id='27'> +3.5861474e+02 </wgt>
<wgt id='28'> +4.6444247e+02 </wgt>
<wgt id='29'> +3.2711978e+02 </wgt>
<wgt id='30'> +4.5252469e+02 </wgt>
<wgt id='31'> +6.3246477e+02 </wgt>
<wgt id='32'> +3.6100572e+02 </wgt>
<wgt id='33'> +4.5252469e+02 </wgt>
<wgt id='34'> +3.3091655e+02 </wgt>
<wgt id='35'> +4.2373861e+02 </wgt>
<wgt id='36'> +5.9943473e+02 </wgt>
<wgt id='37'> +3.3213235e+02 </wgt>
<wgt id='38'> +4.2373861e+02 </wgt>
<wgt id='39'> +3.0421546e+02 </wgt>
<wgt id='40'> +3.8984784e+02 </wgt>
<wgt id='41'> +5.6302131e+02 </wgt>
<wgt id='42'> +3.0552319e+02 </wgt>
<wgt id='43'> +3.8984783e+02 </wgt>
<wgt id='44'> +2.7998700e+02 </wgt>
<wgt id='45'> +5.0481800e+02 </wgt>
<wgt id='46'> +5.1860847e+02 </wgt>
<wgt id='47'> +5.1651862e+02 </wgt>
<wgt id='48'> +5.0547910e+02 </wgt>
<wgt id='49'> +4.8286699e+02 </wgt>
<wgt id='50'> +5.9491071e+02 </wgt>
<wgt id='51'> +4.8426428e+02 </wgt>
<wgt id='52'> +4.9397032e+02 </wgt>
<wgt id='53'> +4.9774778e+02 </wgt>
<wgt id='54'> +5.2464435e+02 </wgt>
<wgt id='55'> +5.1924980e+02 </wgt>
<wgt id='56'> +4.6917189e+02 </wgt>
<wgt id='57'> +5.2411261e+02 </wgt>
<wgt id='58'> +4.7829279e+02 </wgt>
<wgt id='59'> +5.4042580e+02 </wgt>
<wgt id='60'> +5.0973328e+02 </wgt>
<wgt id='61'> +4.4680467e+02 </wgt>
<wgt id='62'> +4.8293661e+02 </wgt>
<wgt id='63'> +5.1770117e+02 </wgt>
<wgt id='64'> +5.0105025e+02 </wgt>
<wgt id='65'> +5.1331233e+02 </wgt>
<wgt id='66'> +5.0147285e+02 </wgt>
<wgt id='67'> +5.0679211e+02 </wgt>
<wgt id='68'> +5.7661727e+02 </wgt>
<wgt id='69'> +5.1819536e+02 </wgt>
<wgt id='70'> +5.1322723e+02 </wgt>
<wgt id='71'> +4.9371724e+02 </wgt>
<wgt id='72'> +4.8135201e+02 </wgt>
<wgt id='73'> +4.7419490e+02 </wgt>
<wgt id='74'> +5.5065641e+02 </wgt>
<wgt id='75'> +5.2513735e+02 </wgt>
<wgt id='76'> +5.1020765e+02 </wgt>
<wgt id='77'> +4.9113002e+02 </wgt>
<wgt id='78'> +4.6012401e+02 </wgt>
<wgt id='79'> +5.1681174e+02 </wgt>
<wgt id='80'> +4.7308467e+02 </wgt>
<wgt id='81'> +5.0522371e+02 </wgt>
<wgt id='82'> +4.8755768e+02 </wgt>
<wgt id='83'> +5.0183382e+02 </wgt>
<wgt id='84'> +5.1803099e+02 </wgt>
<wgt id='85'> +4.8720393e+02 </wgt>
<wgt id='86'> +5.1485902e+02 </wgt>
<wgt id='87'> +5.0551933e+02 </wgt>
<wgt id='88'> +4.9643651e+02 </wgt>
<wgt id='89'> +4.8034288e+02 </wgt>
<wgt id='90'> +5.0002278e+02 </wgt>
<wgt id='91'> +4.8267103e+02 </wgt>
<wgt id='92'> +4.6881226e+02 </wgt>
<wgt id='93'> +5.0566917e+02 </wgt>
<wgt id='94'> +4.7785810e+02 </wgt>
<wgt id='95'> +5.1853739e+02 </wgt>
<wgt id='96'> +5.3009837e+02 </wgt>
<wgt id='97'> +4.8068460e+02 </wgt>
<wgt id='98'> +5.1327966e+02 </wgt>
<wgt id='99'> +4.5571417e+02 </wgt>
<wgt id='100'> +4.3272620e+02 </wgt>
<wgt id='101'> +5.7315459e+02 </wgt>
<wgt id='102'> +5.4309282e+02 </wgt>
<wgt id='103'> +5.1757052e+02 </wgt>
<wgt id='104'> +5.2060954e+02 </wgt>
<wgt id='105'> +5.2035276e+02 </wgt>
<wgt id='106'> +4.7457435e+02 </wgt>
<wgt id='107'> +4.8059513e+02 </wgt>
<wgt id='108'> +4.5805479e+02 </wgt>
<wgt id='109'> +4.8890925e+02 </wgt>
<wgt id='110'> +4.8705767e+02 </wgt>
<wgt id='111'> +4.9313011e+02 </wgt>
<wgt id='112'> +4.9988790e+02 </wgt>
<wgt id='113'> +4.9299286e+02 </wgt>
<wgt id='114'> +5.0855896e+02 </wgt>
<wgt id='115'> +4.6725249e+02 </wgt>
<wgt id='116'> +5.3606881e+02 </wgt>
<wgt id='117'> +4.9368498e+02 </wgt>
<wgt id='118'> +5.2746142e+02 </wgt>
<wgt id='119'> +5.1994547e+02 </wgt>
<wgt id='120'> +4.9994731e+02 </wgt>
<wgt id='121'> +5.0230325e+02 </wgt>
<wgt id='122'> +4.9868801e+02 </wgt>
<wgt id='123'> +4.9698074e+02 </wgt>
<wgt id='124'> +5.6552792e+02 </wgt>
<wgt id='125'> +5.9158000e+02 </wgt>
<wgt id='126'> +5.0745798e+02 </wgt>
<wgt id='127'> +5.0325607e+02 </wgt>
<wgt id='128'> +4.6758347e+02 </wgt>
<wgt id='129'> +5.4347145e+02 </wgt>
<wgt id='130'> +4.8694806e+02 </wgt>
<wgt id='131'> +4.9788136e+02 </wgt>
<wgt id='132'> +5.4763237e+02 </wgt>
<wgt id='133'> +5.3424024e+02 </wgt>
<wgt id='134'> +5.1045568e+02 </wgt>
<wgt id='135'> +4.9853343e+02 </wgt>
<wgt id='136'> +5.6107267e+02 </wgt>
<wgt id='137'> +4.9947541e+02 </wgt>
<wgt id='138'> +4.9123760e+02 </wgt>
<wgt id='139'> +5.2066268e+02 </wgt>
<wgt id='140'> +5.0456550e+02 </wgt>
<wgt id='141'> +5.3523058e+02 </wgt>
<wgt id='142'> +4.2489289e+02 </wgt>
<wgt id='143'> +5.1998969e+02 </wgt>
<wgt id='144'> +4.7976796e+02 </wgt>
<wgt id='145'> +4.8413264e+02 </wgt>
</rwgt>
</event>
<event>
 4      1 +5.0481800e+02 1.97930800e+02 7.54677100e-03 1.15149700e-01
       21 -1    0    0  503  502 +0.0000000000e+00 +0.0000000000e+00 +6.4787911740e+01 6.4787911740e+01 0.0000000000e+00 0.0000e+00 1.0000e+00
       21 -1    0    0  501  503 -0.0000000000e+00 -0.0000000000e+00 -6.3700068452e+02 6.3700068452e+02 0.0000000000e+00 0.0000e+00 1.0000e+00
        6  1    1    2  501    0 -2.4639378789e+01 +9.2954270781e+01 -3.6513423470e+02 4.1533071737e+02 1.7300000000e+02 0.0000e+00 1.0000e+00
       -6  1    1    2    0  502 +2.4639378789e+01 -9.2954270781e+01 -2.0707853808e+02 2.8645787889e+02 1.7300000000e+02 0.0000e+00 1.0000e+00
<mgrwt>
<rscale>  2 0.19793078E+03</rscale>
<asrwt>0</asrwt>
<pdfrwt beam="1">  1       21 0.99673715E-02 0.19793078E+03</pdfrwt>
<pdfrwt beam="2">  1       21 0.98000101E-01 0.19793078E+03</pdfrwt>
<totfact> 0.70104229E+04</totfact>
</mgrwt>
<rwgt>
<wgt id='1'> +6.5013611e+02 </wgt>
<wgt id='2'> +6.1817496e+02 </wgt>
<wgt id='3'> +5.0481800e+02 </wgt>
<wgt id='4'> +6.5013610e+02 </wgt>
<wgt id='5'> +5.0019314e+02 </wgt>
<wgt id='6'> +6.1862989e+02 </wgt>
<wgt id='7'> +5.8564076e+02 </wgt>
<wgt id='8'> +4.7209216e+02 </wgt>
<wgt id='9'> +6.1862989e+02 </wgt>
<wgt id='10'> +4.6772479e+02 </wgt>
<wgt id='11'> +5.7852597e+02 </wgt>
<wgt id='12'> +5.4762494e+02 </wgt>
<wgt id='13'> +4.4133156e+02 </wgt>
<wgt id='14'> +5.7852597e+02 </wgt>
<wgt id='15'> +4.3724993e+02 </wgt>
<wgt id='16'> +5.3052789e+02 </wgt>
<wgt id='17'> +5.0822578e+02 </wgt>
<wgt id='18'> +4.2530864e+02 </wgt>
<wgt id='19'> +5.3052788e+02 </wgt>
<wgt id='20'> +4.2166610e+02 </wgt>
<wgt id='21'> +4.8147814e+02 </wgt>
<wgt id='22'> +3.9773716e+02 </wgt>
<wgt id='23'> +5.0481800e+02 </wgt>
<wgt id='24'> +3.9429507e+02 </wgt>
<wgt id='25'> +4.7209216e+02 </wgt>
<wgt id='26'> +4.5022385e+02 </wgt>
<wgt id='27'> +3.7182138e+02 </wgt>
<wgt id='28'> +4.7209216e+02 </wgt>
<wgt id='29'> +3.6860456e+02 </wgt>
<wgt id='30'> +4.4696920e+02 </wgt>
<wgt id='31'> +4.2934142e+02 </wgt>
<wgt id='32'> +3.6316625e+02 </wgt>
<wgt id='33'> +4.4696920e+02 </wgt>
<wgt id='34'> +3.6022506e+02 </wgt>
<wgt id='35'> +4.2530865e+02 </wgt>
<wgt id='36'> +4.0674542e+02 </wgt>
<wgt id='37'> +3.3962327e+02 </wgt>
<wgt id='38'> +4.2530864e+02 </wgt>
<wgt id='39'> +3.3684226e+02 </wgt>
<wgt id='40'> +3.9773716e+02 </wgt>
<wgt id='41'> +3.8034227e+02 </wgt>
<wgt id='42'> +3.1749408e+02 </wgt>
<wgt id='43'> +3.9773716e+02 </wgt>
<wgt id='44'> +3.1489513e+02 </wgt>
<wgt id='45'> +5.0481800e+02 </wgt>
<wgt id='46'> +5.1348968e+02 </wgt>
<wgt id='47'> +5.1828820e+02 </wgt>
<wgt id='48'> +5.0670297e+02 </wgt>
<wgt id='49'> +4.9656622e+02 </wgt>
<wgt id='50'> +5.9096603e+02 </wgt>
<wgt id='51'> +4.9226531e+02 </wgt>
<wgt id='52'> +5.0312955e+02 </wgt>
<wgt id='53'> +4.9968928e+02 </wgt>
<wgt id='54'> +5.1311390e+02 </wgt>
<wgt id='55'> +4.8145958e+02 </wgt>
<wgt id='56'> +4.6545676e+02 </wgt>
<wgt id='57'> +5.0740183e+02 </wgt>
<wgt id='58'> +4.9616012e+02 </wgt>
<wgt id='59'> +5.2178281e+02 </wgt>
<wgt id='60'> +5.0320579e+02 </wgt>
<wgt id='61'> +4.5092456e+02 </wgt>
<wgt id='62'> +4.9437363e+02 </wgt>
<wgt id='63'> +5.0785389e+02 </wgt>
<wgt id='64'> +4.9747939e+02 </wgt>
<wgt id='65'> +5.5479618e+02 </wgt>
<wgt id='66'> +4.9638200e+02 </wgt>
<wgt id='67'> +5.0769098e+02 </wgt>
<wgt id='68'> +5.5363996e+02 </wgt>
<wgt id='69'> +5.0183199e+02 </wgt>
<wgt id='70'> +5.0038093e+02 </wgt>
<wgt id='71'> +5.0846685e+02 </wgt>
<wgt id='72'> +4.8932698e+02 </wgt>
<wgt id='73'> +4.8980400e+02 </wgt>
<wgt id='74'> +5.3186306e+02 </wgt>
<wgt id='75'> +5.1595495e+02 </wgt>
<wgt id='76'> +4.9966366e+02 </wgt>
<wgt id='77'> +4.9399376e+02 </wgt>
<wgt id='78'> +4.8416285e+02 </wgt>
<wgt id='79'> +4.9945815e+02 </wgt>
<wgt id='80'> +4.9119992e+02 </wgt>
<wgt id='81'> +4.9738034e+02 </wgt>
<wgt id='82'> +4.9881891e+02 </wgt>
<wgt id='83'> +5.0855787e+02 </wgt>
<wgt id='84'> +5.3738774e+02 </wgt>
<wgt id='85'> +5.1207057e+02 </wgt>
<wgt id='86'> +5.0652016e+02 </wgt>
<wgt id='87'> +5.0726848e+02 </wgt>
<wgt id='88'> +5.0550464e+02 </wgt>
<wgt id='89'> +5.0803886e+02 </wgt>
<wgt id='90'> +5.1248014e+02 </wgt>
<wgt id='91'> +5.1481101e+02 </wgt>
<wgt id='92'> +4.6694558e+02 </wgt>
<wgt id='93'> +5.0179884e+02 </wgt>
<wgt id='94'> +4.9202579e+02 </wgt>
<wgt id='95'> +5.0044073e+02 </wgt>
<wgt id='96'> +5.3608593e+02 </wgt>
<wgt id='97'> +4.9914059e+02 </wgt>
<wgt id='98'> +4.9511244e+02 </wgt>
<wgt id='99'> +4.7910219e+02 </wgt>
<wgt id='100'> +4.7310842e+02 </wgt>
<wgt id='101'> +5.5208122e+02 </wgt>
<wgt id='102'> +5.1639869e+02 </wgt>
<wgt id='103'> +5.3848793e+02 </wgt>
<wgt id='104'> +5.0857600e+02 </wgt>
<wgt id='105'> +5.2182339e+02 </wgt>
<wgt id='106'> +4.6646835e+02 </wgt>
<wgt id='107'> +4.8582188e+02 </wgt>
<wgt id='108'> +4.5187119e+02 </wgt>
<wgt id='109'> +4.7949376e+02 </wgt>
<wgt id='110'> +5.0047204e+02 </wgt>
<wgt id='111'> +4.9248547e+02 </wgt>
<wgt id='112'> +4.8271550e+02 </wgt>
<wgt id='113'> +4.7307777e+02 </wgt>
<wgt id='114'> +4.9864367e+02 </wgt>
<wgt id='115'> +4.8116093e+02 </wgt>
<wgt id='116'> +5.1917325e+02 </wgt>
<wgt id='117'> +4.9981299e+02 </wgt>
<wgt id='118'> +5.2535403e+02 </wgt>
<wgt id='119'> +4.9657560e+02 </wgt>
<wgt id='120'> +4.9436150e+02 </wgt>
<wgt id='121'> +4.9740524e+02 </wgt>
<wgt id='122'> +4.9954622e+02 </wgt>
<wgt id='123'> +5.0584597e+02 </wgt>
<wgt id='124'> +5.5297719e+02 </wgt>
<wgt id='125'> +5.5994035e+02 </wgt>
<wgt id='126'> +5.1749060e+02 </wgt>
<wgt id='127'> +5.1521093e+02 </wgt>
<wgt id='128'> +4.6248585e+02 </wgt>
<wgt id='129'> +5.6044931e+02 </wgt>
<wgt id='130'> +4.9904271e+02 </wgt>
<wgt id='131'> +5.2350650e+02 </wgt>
<wgt id='132'> +5.2789829e+02 </wgt>
<wgt id='133'> +5.1701089e+02 </wgt>
<wgt id='134'> +4.9255340e+02 </wgt>
<wgt id='135'> +5.1060928e+02 </wgt>
<wgt id='136'> +5.2115466e+02 </wgt>
<wgt id='137'> +4.8452256e+02 </wgt>
<wgt id='138'> +4.7327927e+02 </wgt>
<wgt id='139'> +5.1874966e+02 </wgt>
<wgt id='140'> +5.1928392e+02 </wgt>
<wgt id='141'> +5.1364141e+02 </wgt>
<wgt id='142'> +4.7721659e+02 </wgt>
<wgt id='143'> +5.1398799e+02 </wgt>
<wgt id='144'> +4.9571680e+02 </wgt>
<wgt id='145'> +4.9960873e+02 </wgt>
</rwgt>
</event>
<event>
 4      1 +5.0481800e+02 1.94952200e+02 7.54677100e-03 1.15406900e-01
       21 -1    0    0  501  502 +0.0000000000e+00 +0.0000000000e+00 +9.8874271193e+01 9.8874271193e+01 0.0000000000e+00 0.0000e+00 -1.0000e+00
       21 -1    0    0  502  503 -0.0000000000e+00 -0.0000000000e+00 -4.6671343697e+02 4.6671343697e+02 0.0000000000e+00 0.0000e+00 -1.0000e+00
        6  1    1    2  501    0 +8.9814347881e-01 +8.9869690135e+01 -6.5150269263e+01 2.0555029908e+02 1.7300000000e+02 0.0000e+00 1.0000e+00
       -6  1    1    2    0  503 -8.9814347881e-01 -8.9869690135e+01 -3.0268889652e+02 3.6003740909e+02 1.7300000000e+02 0.0000e+00 1.0000e+00
<mgrwt>
<rscale>  2 0.19495222E+03</rscale>
<asrwt>0</asrwt>
<pdfrwt beam="1">  1       21 0.15211427E-01 0.19495222E+03</pdfrwt>
<pdfrwt beam="2">  1       21 0.71802066E-01 0.19495222E+03</pdfrwt>
<totfact> 0.66918055E+04</totfact>
</mgrwt>
<rwgt>
<wgt id='1'> +6.4926663e+02 </wgt>
<wgt id='2'> +5.7655531e+02 </wgt>
<wgt id='3'> +5.0481800e+02 </wgt>
<wgt id='4'> +6.4926663e+02 </wgt>
<wgt id='5'> +4.8794367e+02 </wgt>
<wgt id='6'> +6.1911063e+02 </wgt>
<wgt id='7'> +5.4431772e+02 </wgt>
<wgt id='8'> +4.7298988e+02 </wgt>
<wgt id='9'> +6.1911063e+02 </wgt>
<wgt id='10'> +4.5708855e+02 </wgt>
<wgt id='11'> +5.8007650e+02 </wgt>
<wgt id='12'> +5.0985291e+02 </wgt>
<wgt id='13'> +4.4299577e+02 </wgt>
<wgt id='14'> +5.8007650e+02 </wgt>
<wgt id='15'> +4.2810934e+02 </wgt>
<wgt id='16'> +5.2940697e+02 </wgt>
<wgt id='17'> +4.7824198e+02 </wgt>
<wgt id='18'> +4.2514449e+02 </wgt>
<wgt id='19'> +5.2940697e+02 </wgt>
<wgt id='20'> +4.1180068e+02 </wgt>
<wgt id='21'> +4.5150149e+02 </wgt>
<wgt id='22'> +3.9833968e+02 </wgt>
<wgt id='23'> +5.0481800e+02 </wgt>
<wgt id='24'> +3.8576045e+02 </wgt>
<wgt id='25'> +4.7298988e+02 </wgt>
<wgt id='26'> +4.2291357e+02 </wgt>
<wgt id='27'> +3.7307943e+02 </wgt>
<wgt id='28'> +4.7298988e+02 </wgt>
<wgt id='29'> +3.6130341e+02 </wgt>
<wgt id='30'> +4.4585268e+02 </wgt>
<wgt id='31'> +4.0540161e+02 </wgt>
<wgt id='32'> +3.6292659e+02 </wgt>
<wgt id='33'> +4.4585268e+02 </wgt>
<wgt id='34'> +3.5214766e+02 </wgt>
<wgt id='35'> +4.2514449e+02 </wgt>
<wgt id='36'> +3.8273393e+02 </wgt>
<wgt id='37'> +3.4004453e+02 </wgt>
<wgt id='38'> +4.2514449e+02 </wgt>
<wgt id='39'> +3.2987960e+02 </wgt>
<wgt id='40'> +3.9833968e+02 </wgt>
<wgt id='41'> +3.5850020e+02 </wgt>
<wgt id='42'> +3.1848100e+02 </wgt>
<wgt id='43'> +3.9833968e+02 </wgt>
<wgt id='44'> +3.0896538e+02 </wgt>
<wgt id='45'> +5.0481800e+02 </wgt>
<wgt id='46'> +5.0890355e+02 </wgt>
<wgt id='47'> +5.2104848e+02 </wgt>
<wgt id='48'> +5.0719110e+02 </wgt>
<wgt id='49'> +5.0140332e+02 </wgt>
<wgt id='50'> +5.9066674e+02 </wgt>
<wgt id='51'> +4.9444235e+02 </wgt>
<wgt id='52'> +5.0345518e+02 </wgt>
<wgt id='53'> +5.0540899e+02 </wgt>
<wgt id='54'> +5.0921006e+02 </wgt>
<wgt id='55'> +4.6268725e+02 </wgt>
<wgt id='56'> +4.6685419e+02 </wgt>
<wgt id='57'> +4.9776544e+02 </wgt>
<wgt id='58'> +5.0372275e+02 </wgt>
<wgt id='59'> +5.0809311e+02 </wgt>
<wgt id='60'> +4.9313680e+02 </wgt>
<wgt id='61'> +4.7116205e+02 </wgt>
<wgt id='62'> +4.9735739e+02 </wgt>
<wgt id='63'> +5.0563926e+02 </wgt>
<wgt id='64'> +4.9786228e+02 </wgt>
<wgt id='65'> +5.7933544e+02 </wgt>
<wgt id='66'> +4.9410901e+02 </wgt>
<wgt id='67'> +5.0874574e+02 </wgt>
<wgt id='68'> +5.4620199e+02 </wgt>
<wgt id='69'> +4.9609124e+02 </wgt>
<wgt id='70'> +4.9730535e+02 </wgt>
<wgt id='71'> +5.1297049e+02 </wgt>
<wgt id='72'> +4.9034107e+02 </wgt>
<wgt id='73'> +4.9543967e+02 </wgt>
<wgt id='74'> +5.2453806e+02 </wgt>
<wgt id='75'> +5.1552790e+02 </wgt>
<wgt id='76'> +4.9387236e+02 </wgt>
<wgt id='77'> +4.9043072e+02 </wgt>
<wgt id='78'> +4.9662067e+02 </wgt>
<wgt id='79'> +4.9033461e+02 </wgt>
<wgt id='80'> +4.9710320e+02 </wgt>
<wgt id='81'> +4.9574944e+02 </wgt>
<wgt id='82'> +5.1000327e+02 </wgt>
<wgt id='83'> +5.1281930e+02 </wgt>
<wgt id='84'> +5.4811835e+02 </wgt>
<wgt id='85'> +5.2399858e+02 </wgt>
<wgt id='86'> +5.0335750e+02 </wgt>
<wgt id='87'> +5.0627338e+02 </wgt>
<wgt id='88'> +5.1016628e+02 </wgt>
<wgt id='89'> +5.1505137e+02 </wgt>
<wgt id='90'> +5.1275424e+02 </wgt>
<wgt id='91'> +5.2903032e+02 </wgt>
<wgt id='92'> +4.6533658e+02 </wgt>
<wgt id='93'> +4.9864739e+02 </wgt>
<wgt id='94'> +4.9855064e+02 </wgt>
<wgt id='95'> +4.9037111e+02 </wgt>
<wgt id='96'> +5.4196632e+02 </wgt>
<wgt id='97'> +5.0759585e+02 </wgt>
<wgt id='98'> +4.8646766e+02 </wgt>
<wgt id='99'> +4.8664774e+02 </wgt>
<wgt id='100'> +4.9049144e+02 </wgt>
<wgt id='101'> +5.3969053e+02 </wgt>
<wgt id='102'> +5.0106077e+02 </wgt>
<wgt id='103'> +5.4566871e+02 </wgt>
<wgt id='104'> +5.0532378e+02 </wgt>
<wgt id='105'> +5.2341888e+02 </wgt>
<wgt id='106'> +4.6445121e+02 </wgt>
<wgt id='107'> +4.9247330e+02 </wgt>
<wgt id='108'> +4.5096190e+02 </wgt>
<wgt id='109'> +4.7549850e+02 </wgt>
<wgt id='110'> +5.0420398e+02 </wgt>
<wgt id='111'> +4.9181048e+02 </wgt>
<wgt id='112'> +4.8019285e+02 </wgt>
<wgt id='113'> +4.6620668e+02 </wgt>
<wgt id='114'> +4.9962089e+02 </wgt>
<wgt id='115'> +4.9395663e+02 </wgt>
<wgt id='116'> +5.1046418e+02 </wgt>
<wgt id='117'> +5.0612695e+02 </wgt>
<wgt id='118'> +5.2146594e+02 </wgt>
<wgt id='119'> +4.8861283e+02 </wgt>
<wgt id='120'> +4.9700293e+02 </wgt>
<wgt id='121'> +4.9317901e+02 </wgt>
<wgt id='122'> +4.9915306e+02 </wgt>
<wgt id='123'> +5.0939336e+02 </wgt>
<wgt id='124'> +5.4526061e+02 </wgt>
<wgt id='125'> +5.4769344e+02 </wgt>
<wgt id='126'> +5.2188038e+02 </wgt>
<wgt id='127'> +5.1874930e+02 </wgt>
<wgt id='128'> +4.6485461e+02 </wgt>
<wgt id='129'> +5.6809383e+02 </wgt>
<wgt id='130'> +5.0387983e+02 </wgt>
<wgt id='131'> +5.3433878e+02 </wgt>
<wgt id='132'> +5.1209842e+02 </wgt>
<wgt id='133'> +5.0774916e+02 </wgt>
<wgt id='134'> +4.8202098e+02 </wgt>
<wgt id='135'> +5.1537137e+02 </wgt>
<wgt id='136'> +4.9885540e+02 </wgt>
<wgt id='137'> +4.7866184e+02 </wgt>
<wgt id='138'> +4.6447359e+02 </wgt>
<wgt id='139'> +5.1655095e+02 </wgt>
<wgt id='140'> +5.2939281e+02 </wgt>
<wgt id='141'> +5.0682680e+02 </wgt>
<wgt id='142'> +4.9511796e+02 </wgt>
<wgt id='143'> +5.0680752e+02 </wgt>
<wgt id='144'> +5.0152812e+02 </wgt>
<wgt id='145'> +5.0470950e+02 </wgt>
</rwgt>
</event>
<event>
 4      1 +5.0481800e+02 2.34077200e+02 7.54677100e-03 1.12380200e-01
       21 -1    0    0  501  502 +0.0000000000e+00 +0.0000000000e+00 +9.6315866114e+01 9.6315866114e+01 0.0000000000e+00 0.0000e+00 -1.0000e+00
       21 -1    0    0  502  503 -0.0000000000e+00 -0.0000000000e+00 -5.7620375983e+02 5.7620375983e+02 0.0000000000e+00 0.0000e+00 -1.0000e+00
        6  1    1    2  501    0 +1.5756791567e+02 -5.9582252263e+00 -2.7785453866e+02 3.6331156484e+02 1.7300000000e+02 0.0000e+00 -1.0000e+00
       -6  1    1    2    0  503 -1.5756791567e+02 +5.9582252263e+00 -2.0203335506e+02 3.0920806111e+02 1.7300000000e+02 0.0000e+00 -1.0000e+00
<mgrwt>
<rscale>  2 0.23407723E+03</rscale>
<asrwt>0</asrwt>
<pdfrwt beam="1">  1       21 0.14817826E-01 0.23407723E+03</pdfrwt>
<pdfrwt beam="2">  1       21 0.88646732E-01 0.23407723E+03</pdfrwt>
<totfact> 0.42757539E+04</totfact>
</mgrwt>
<rwgt>
<wgt id='1'> +6.5238115e+02 </wgt>
<wgt id='2'> +5.4999271e+02 </wgt>
<wgt id='3'> +5.0481800e+02 </wgt>
<wgt id='4'> +6.5238115e+02 </wgt>
<wgt id='5'> +5.0366110e+02 </wgt>
<wgt id='6'> +6.1294711e+02 </wgt>
<wgt id='7'> +5.1124691e+02 </wgt>
<wgt id='8'> +4.6908467e+02 </wgt>
<wgt id='9'> +6.1294711e+02 </wgt>
<wgt id='10'> +4.6800996e+02 </wgt>
<wgt id='11'> +5.6955991e+02 </wgt>
<wgt id='12'> +4.7517959e+02 </wgt>
<wgt id='13'> +4.3611000e+02 </wgt>
<wgt id='14'> +5.6955991e+02 </wgt>
<wgt id='15'> +4.3511451e+02 </wgt>
<wgt id='16'> +5.3729554e+02 </wgt>
<wgt id='17'> +4.6248093e+02 </wgt>
<wgt id='18'> +4.2674447e+02 </wgt>
<wgt id='19'> +5.3729554e+02 </wgt>
<wgt id='20'> +4.2582231e+02 </wgt>
<wgt id='21'> +4.2990015e+02 </wgt>
<wgt id='22'> +3.9653754e+02 </wgt>
<wgt id='23'> +5.0481800e+02 </wgt>
<wgt id='24'> +3.9568091e+02 </wgt>
<wgt id='25'> +4.6908467e+02 </wgt>
<wgt id='26'> +3.9957166e+02 </wgt>
<wgt id='27'> +3.6866262e+02 </wgt>
<wgt id='28'> +4.6908467e+02 </wgt>
<wgt id='29'> +3.6786931e+02 </wgt>
<wgt id='30'> +4.5419914e+02 </wgt>
<wgt id='31'> +3.9441524e+02 </wgt>
<wgt id='32'> +3.6547358e+02 </wgt>
<wgt id='33'> +4.5419914e+02 </wgt>
<wgt id='34'> +3.6472426e+02 </wgt>
<wgt id='35'> +4.2674447e+02 </wgt>
<wgt id='36'> +3.6662954e+02 </wgt>
<wgt id='37'> +3.3960368e+02 </wgt>
<wgt id='38'> +4.2674447e+02 </wgt>
<wgt id='39'> +3.3890762e+02 </wgt>
<wgt id='40'> +3.9653754e+02 </wgt>
<wgt id='41'> +3.4076465e+02 </wgt>
<wgt id='42'> +3.1573097e+02 </wgt>
<wgt id='43'> +3.9653754e+02 </wgt>
<wgt id='44'> +3.1508650e+02 </wgt>
<wgt id='45'> +5.0481800e+02 </wgt>
<wgt id='46'> +5.1334890e+02 </wgt>
<wgt id='47'> +5.2129165e+02 </wgt>
<wgt id='48'> +5.0837216e+02 </wgt>
<wgt id='49'> +4.9792008e+02 </wgt>
<wgt id='50'> +5.9773623e+02 </wgt>
<wgt id='51'> +4.9296159e+02 </wgt>
<wgt id='52'> +5.0303310e+02 </wgt>
<wgt id='53'> +5.0149283e+02 </wgt>
<wgt id='54'> +5.1183125e+02 </wgt>
<wgt id='55'> +4.7297321e+02 </wgt>
<wgt id='56'> +4.6371991e+02 </wgt>
<wgt id='57'> +5.0335086e+02 </wgt>
<wgt id='58'> +4.9672716e+02 </wgt>
<wgt id='59'> +5.1749967e+02 </wgt>
<wgt id='60'> +4.9919605e+02 </wgt>
<wgt id='61'> +4.5373520e+02 </wgt>
<wgt id='62'> +4.9566746e+02 </wgt>
<wgt id='63'> +5.0692222e+02 </wgt>
<wgt id='64'> +4.9601923e+02 </wgt>
<wgt id='65'> +5.6694778e+02 </wgt>
<wgt id='66'> +4.9598936e+02 </wgt>
<wgt id='67'> +5.0817566e+02 </wgt>
<wgt id='68'> +5.5347878e+02 </wgt>
<wgt id='69'> +5.0283951e+02 </wgt>
<wgt id='70'> +4.9881801e+02 </wgt>
<wgt id='71'> +5.1020070e+02 </wgt>
<wgt id='72'> +4.8572371e+02 </wgt>
<wgt id='73'> +4.9050424e+02 </wgt>
<wgt id='74'> +5.3113950e+02 </wgt>
<wgt id='75'> +5.1692415e+02 </wgt>
<wgt id='76'> +4.9684489e+02 </wgt>
<wgt id='77'> +4.9297771e+02 </wgt>
<wgt id='78'> +4.8723956e+02 </wgt>
<wgt id='79'> +4.9650611e+02 </wgt>
<wgt id='80'> +4.9245244e+02 </wgt>
<wgt id='81'> +4.9598044e+02 </wgt>
<wgt id='82'> +5.0224181e+02 </wgt>
<wgt id='83'> +5.1197618e+02 </wgt>
<wgt id='84'> +5.4387687e+02 </wgt>
<wgt id='85'> +5.1685212e+02 </wgt>
<wgt id='86'> +5.0664633e+02 </wgt>
<wgt id='87'> +5.0728914e+02 </wgt>
<wgt id='88'> +5.0861724e+02 </wgt>
<wgt id='89'> +5.1084998e+02 </wgt>
<wgt id='90'> +5.1269223e+02 </wgt>
<wgt id='91'> +5.2011612e+02 </wgt>
<wgt id='92'> +4.6242073e+02 </wgt>
<wgt id='93'> +5.0130052e+02 </wgt>
<wgt id='94'> +4.9308663e+02 </wgt>
<wgt id='95'> +4.9547840e+02 </wgt>
<wgt id='96'> +5.4145912e+02 </wgt>
<wgt id='97'> +5.0152985e+02 </wgt>
<wgt id='98'> +4.9221385e+02 </wgt>
<wgt id='99'> +4.8050577e+02 </wgt>
<wgt id='100'> +4.7622267e+02 </wgt>
<wgt id='101'> +5.5087519e+02 </wgt>
<wgt id='102'> +5.1340562e+02 </wgt>
<wgt id='103'> +5.4269500e+02 </wgt>
<wgt id='104'> +5.0908231e+02 </wgt>
<wgt id='105'> +5.2123890e+02 </wgt>
<wgt id='106'> +4.6254193e+02 </wgt>
<wgt id='107'> +4.8539960e+02 </wgt>
<wgt id='108'> +4.4856224e+02 </wgt>
<wgt id='109'> +4.7584648e+02 </wgt>
<wgt id='110'> +5.0057989e+02 </wgt>
<wgt id='111'> +4.9132259e+02 </wgt>
<wgt id='112'> +4.8014850e+02 </wgt>
<wgt id='113'> +4.6876835e+02 </wgt>
<wgt id='114'> +4.9665497e+02 </wgt>
<wgt id='115'> +4.8489819e+02 </wgt>
<wgt id='116'> +5.1873698e+02 </wgt>
<wgt id='117'> +5.0193333e+02 </wgt>
<wgt id='118'> +5.2621824e+02 </wgt>
<wgt id='119'> +4.9230057e+02 </wgt>
<wgt id='120'> +4.9495652e+02 </wgt>
<wgt id='121'> +4.9419098e+02 </wgt>
<wgt id='122'> +4.9912597e+02 </wgt>
<wgt id='123'> +5.0845649e+02 </wgt>
<wgt id='124'> +5.5331433e+02 </wgt>
<wgt id='125'> +5.5838501e+02 </wgt>
<wgt id='126'> +5.2058248e+02 </wgt>
<wgt id='127'> +5.1741522e+02 </wgt>
<wgt id='128'> +4.6250661e+02 </wgt>
<wgt id='129'> +5.6469709e+02 </wgt>
<wgt id='130'> +5.0189182e+02 </wgt>
<wgt id='131'> +5.2750004e+02 </wgt>
<wgt id='132'> +5.2260764e+02 </wgt>
<wgt id='133'> +5.1523204e+02 </wgt>
<wgt id='134'> +4.8833826e+02 </wgt>
<wgt id='135'> +5.1225753e+02 </wgt>
<wgt id='136'> +5.1318268e+02 </wgt>
<wgt id='137'> +4.8348678e+02 </wgt>
<wgt id='138'> +4.7282031e+02 </wgt>
<wgt id='139'> +5.1849907e+02 </wgt>
<wgt id='140'> +5.2247341e+02 </wgt>
<wgt id='141'> +5.1214773e+02 </wgt>
<wgt id='142'> +4.8044102e+02 </wgt>
<wgt id='143'> +5.1147714e+02 </wgt>
<wgt id='144'> +4.9600555e+02 </wgt>
<wgt id='145'> +5.0192315e+02 </wgt>
</rwgt>
</event>
<event>
 4      1 +5.0481800e+02 1.76610900e+02 7.54677100e-03 1.17112400e-01
       21 -1    0    0  503  502 +0.0000000000e+00 +0.0000000000e+00 +1.7051284556e+02 1.7051284556e+02 0.0000000000e+00 0.0000e+00 -1.0000e+00
       21 -1    0    0  501  503 -0.0000000000e+00 -0.0000000000e+00 -1.8477817839e+02 1.8477817839e+02 0.0000000000e+00 0.0000e+00 1.0000e+00
        6  1    1    2  501    0 +2.1189715255e+01 +2.8520366489e+01 -2.4913198528e+01 1.7835942027e+02 1.7300000000e+02 0.0000e+00 1.0000e+00
       -6  1    1    2    0  502 -2.1189715255e+01 -2.8520366489e+01 +1.0647865700e+01 1.7693160368e+02 1.7300000000e+02 0.0000e+00 1.0000e+00
<mgrwt>
<rscale>  2 0.17661092E+03</rscale>
<asrwt>0</asrwt>
<pdfrwt beam="1">  1       21 0.26232745E-01 0.17661092E+03</pdfrwt>
<pdfrwt beam="2">  1       21 0.28427412E-01 0.17661092E+03</pdfrwt>
<totfact> 0.16425167E+05</totfact>
</mgrwt>
<rwgt>
<wgt id='1'> +6.3924045e+02 </wgt>
<wgt id='2'> +5.2411159e+02 </wgt>
<wgt id='3'> +5.0481800e+02 </wgt>
<wgt id='4'> +6.3924046e+02 </wgt>
<wgt id='5'> +5.0397879e+02 </wgt>
<wgt id='6'> +6.2200539e+02 </wgt>
<wgt id='7'> +5.0054519e+02 </wgt>
<wgt id='8'> +4.8102841e+02 </wgt>
<wgt id='9'> +6.2200540e+02 </wgt>
<wgt id='10'> +4.8019160e+02 </wgt>
<wgt id='11'> +5.9269333e+02 </wgt>
<wgt id='12'> +4.7571098e+02 </wgt>
<wgt id='13'> +4.5704816e+02 </wgt>
<wgt id='14'> +5.9269334e+02 </wgt>
<wgt id='15'> +4.5624835e+02 </wgt>
<wgt id='16'> +5.1880593e+02 </wgt>
<wgt id='17'> +4.3820628e+02 </wgt>
<wgt id='18'> +4.2388837e+02 </wgt>
<wgt id='19'> +5.1880594e+02 </wgt>
<wgt id='20'> +4.2325391e+02 </wgt>
<wgt id='21'> +4.1850257e+02 </wgt>
<wgt id='22'> +4.0391259e+02 </wgt>
<wgt id='23'> +5.0481800e+02 </wgt>
<wgt id='24'> +4.0327683e+02 </wgt>
<wgt id='25'> +4.8102841e+02 </wgt>
<wgt id='26'> +3.9773884e+02 </wgt>
<wgt id='27'> +3.8377672e+02 </wgt>
<wgt id='28'> +4.8102841e+02 </wgt>
<wgt id='29'> +3.8316870e+02 </wgt>
<wgt id='30'> +4.3563383e+02 </wgt>
<wgt id='31'> +3.7261358e+02 </wgt>
<wgt id='32'> +3.6120371e+02 </wgt>
<wgt id='33'> +4.3563383e+02 </wgt>
<wgt id='34'> +3.6069652e+02 </wgt>
<wgt id='35'> +4.2388837e+02 </wgt>
<wgt id='36'> +3.5585921e+02 </wgt>
<wgt id='37'> +3.4418196e+02 </wgt>
<wgt id='38'> +4.2388837e+02 </wgt>
<wgt id='39'> +3.4367208e+02 </wgt>
<wgt id='40'> +4.0391259e+02 </wgt>
<wgt id='41'> +3.3820349e+02 </wgt>
<wgt id='42'> +3.2702378e+02 </wgt>
<wgt id='43'> +4.0391259e+02 </wgt>
<wgt id='44'> +3.2653595e+02 </wgt>
<wgt id='45'> +5.0481800e+02 </wgt>
<wgt id='46'> +4.9863038e+02 </wgt>
<wgt id='47'> +5.1916610e+02 </wgt>
<wgt id='48'> +5.0237467e+02 </wgt>
<wgt id='49'> +5.0430670e+02 </wgt>
<wgt id='50'> +5.7146680e+02 </wgt>
<wgt id='51'> +4.9510445e+02 </wgt>
<wgt id='52'> +5.0022883e+02 </wgt>
<wgt id='53'> +5.1605565e+02 </wgt>
<wgt id='54'> +5.0769559e+02 </wgt>
<wgt id='55'> +4.5249679e+02 </wgt>
<wgt id='56'> +4.7705295e+02 </wgt>
<wgt id='57'> +4.9132194e+02 </wgt>
<wgt id='58'> +5.1403629e+02 </wgt>
<wgt id='59'> +4.9033187e+02 </wgt>
<wgt id='60'> +4.7776253e+02 </wgt>
<wgt id='61'> +5.0526190e+02 </wgt>
<wgt id='62'> +4.9705525e+02 </wgt>
<wgt id='63'> +5.0526851e+02 </wgt>
<wgt id='64'> +5.0620487e+02 </wgt>
<wgt id='65'> +5.9626861e+02 </wgt>
<wgt id='66'> +4.9165534e+02 </wgt>
<wgt id='67'> +5.0941025e+02 </wgt>
<wgt id='68'> +5.3274470e+02 </wgt>
<wgt id='69'> +4.8497638e+02 </wgt>
<wgt id='70'> +4.9778611e+02 </wgt>
<wgt id='71'> +5.1464784e+02 </wgt>
<wgt id='72'> +5.0215795e+02 </wgt>
<wgt id='73'> +5.0128723e+02 </wgt>
<wgt id='74'> +5.1272824e+02 </wgt>
<wgt id='75'> +5.1423143e+02 </wgt>
<wgt id='76'> +4.9170067e+02 </wgt>
<wgt id='77'> +4.8234667e+02 </wgt>
<wgt id='78'> +5.1267609e+02 </wgt>
<wgt id='79'> +4.8023344e+02 </wgt>
<wgt id='80'> +5.0313052e+02 </wgt>
<wgt id='81'> +4.9815437e+02 </wgt>
<wgt id='82'> +5.2248658e+02 </wgt>
<wgt id='83'> +5.1208895e+02 </wgt>
<wgt id='84'> +5.5086966e+02 </wgt>
<wgt id='85'> +5.3126590e+02 </wgt>
<wgt id='86'> +4.9763384e+02 </wgt>
<wgt id='87'> +5.0241421e+02 </wgt>
<wgt id='88'> +5.1178216e+02 </wgt>
<wgt id='89'> +5.1352385e+02 </wgt>
<wgt id='90'> +5.0783435e+02 </wgt>
<wgt id='91'> +5.3906736e+02 </wgt>
<wgt id='92'> +4.7627681e+02 </wgt>
<wgt id='93'> +4.9256556e+02 </wgt>
<wgt id='94'> +5.0685718e+02 </wgt>
<wgt id='95'> +4.8697853e+02 </wgt>
<wgt id='96'> +5.3695786e+02 </wgt>
<wgt id='97'> +5.1659709e+02 </wgt>
<wgt id='98'> +4.8021362e+02 </wgt>
<wgt id='99'> +4.9297531e+02 </wgt>
<wgt id='100'> +5.1217975e+02 </wgt>
<wgt id='101'> +5.1676200e+02 </wgt>
<wgt id='102'> +4.7916930e+02 </wgt>
<wgt id='103'> +5.4241504e+02 </wgt>
<wgt id='104'> +5.0072719e+02 </wgt>
<wgt id='105'> +5.2908533e+02 </wgt>
<wgt id='106'> +4.7530998e+02 </wgt>
<wgt id='107'> +5.0975934e+02 </wgt>
<wgt id='108'> +4.6335708e+02 </wgt>
<wgt id='109'> +4.8095948e+02 </wgt>
<wgt id='110'> +5.0784855e+02 </wgt>
<wgt id='111'> +4.9560203e+02 </wgt>
<wgt id='112'> +4.8818285e+02 </wgt>
<wgt id='113'> +4.6889440e+02 </wgt>
<wgt id='114'> +5.1479472e+02 </wgt>
<wgt id='115'> +5.1814899e+02 </wgt>
<wgt id='116'> +4.9479644e+02 </wgt>
<wgt id='117'> +5.1586607e+02 </wgt>
<wgt id='118'> +5.0872027e+02 </wgt>
<wgt id='119'> +4.8852569e+02 </wgt>
<wgt id='120'> +5.1070570e+02 </wgt>
<wgt id='121'> +4.9391482e+02 </wgt>
<wgt id='122'> +4.9960317e+02 </wgt>
<wgt id='123'> +5.0906800e+02 </wgt>
<wgt id='124'> +5.2742038e+02 </wgt>
<wgt id='125'> +5.2971284e+02 </wgt>
<wgt id='126'> +5.2028428e+02 </wgt>
<wgt id='127'> +5.1628409e+02 </wgt>
<wgt id='128'> +4.7540638e+02 </wgt>
<wgt id='129'> +5.6758592e+02 </wgt>
<wgt id='130'> +5.0715665e+02 </wgt>
<wgt id='131'> +5.4109614e+02 </wgt>
<wgt id='132'> +4.9181692e+02 </wgt>
<wgt id='133'> +4.9419626e+02 </wgt>
<wgt id='134'> +4.7328285e+02 </wgt>
<wgt id='135'> +5.1779160e+02 </wgt>
<wgt id='136'> +4.7812947e+02 </wgt>
<wgt id='137'> +4.7295217e+02 </wgt>
<wgt id='138'> +4.5164523e+02 </wgt>
<wgt id='139'> +5.1062373e+02 </wgt>
<wgt id='140'> +5.4078265e+02 </wgt>
<wgt id='141'> +5.0182715e+02 </wgt>
<wgt id='142'> +5.1743347e+02 </wgt>
<wgt id='143'> +4.9627020e+02 </wgt>
<wgt id='144'> +5.0932927e+02 </wgt>
<wgt id='145'> +5.0574717e+02 </wgt>
</rwgt>
</event>
<event>
 4      1 +5.0481800e+02 4.05513700e+02 7.54677100e-03 1.04188700e-01
       21 -1    0    0  503  502 +0.0000000000e+00 +0.0000000000e+00 +2.0502221317e+03 2.0502221317e+03 0.0000000000e+00 0.0000e+00 1.0000e+00
       21 -1    0    0  501  503 -0.0000000000e+00 -0.0000000000e+00 -1.7016793119e+02 1.7016793119e+02 0.0000000000e+00 0.0000e+00 -1.0000e+00
        6  1    1    2  501    0 +2.0064112484e+02 +3.0701059542e+02 +1.3281375614e+02 4.2670933959e+02 1.7300000000e+02 0.0000e+00 -1.0000e+00
       -6  1    1    2    0  502 -2.0064112484e+02 -3.0701059542e+02 +1.7472404444e+03 1.7936807233e+03 1.7300000000e+02 0.0000e+00 1.0000e+00
<mgrwt>
<rscale>  2 0.40551371E+03</rscale>
<asrwt>0</asrwt>
<pdfrwt beam="1">  1       21 0.31541877E+00 0.40551371E+03</pdfrwt>
<pdfrwt beam="2">  1       21 0.26179683E-01 0.40551371E+03</pdfrwt>
<totfact> 0.31179047E+02</totfact>
</mgrwt>
<rwgt>
<wgt id='1'> +7.2991786e+02 </wgt>
<wgt id='2'> +5.1855052e+02 </wgt>
<wgt id='3'> +5.0481800e+02 </wgt>
<wgt id='4'> +7.2991786e+02 </wgt>
<wgt id='5'> +4.1810228e+02 </wgt>
<wgt id='6'> +5.9885591e+02 </wgt>
<wgt id='7'> +4.3096477e+02 </wgt>
<wgt id='8'> +4.1997141e+02 </wgt>
<wgt id='9'> +5.9885591e+02 </wgt>
<wgt id='10'> +3.5025344e+02 </wgt>
<wgt id='11'> +4.9820403e+02 </wgt>
<wgt id='12'> +3.6272034e+02 </wgt>
<wgt id='13'> +3.5378497e+02 </wgt>
<wgt id='14'> +4.9820403e+02 </wgt>
<wgt id='15'> +2.9691775e+02 </wgt>
<wgt id='16'> +6.1529938e+02 </wgt>
<wgt id='17'> +4.4255842e+02 </wgt>
<wgt id='18'> +4.3124582e+02 </wgt>
<wgt id='19'> +6.1529939e+02 </wgt>
<wgt id='20'> +3.5948241e+02 </wgt>
<wgt id='21'> +3.6780811e+02 </wgt>
<wgt id='22'> +3.5876477e+02 </wgt>
<wgt id='23'> +5.0481800e+02 </wgt>
<wgt id='24'> +3.0114629e+02 </wgt>
<wgt id='25'> +4.1997141e+02 </wgt>
<wgt id='26'> +3.0956471e+02 </wgt>
<wgt id='27'> +3.0222434e+02 </wgt>
<wgt id='28'> +4.1997141e+02 </wgt>
<wgt id='29'> +2.5528851e+02 </wgt>
<wgt id='30'> +5.2562564e+02 </wgt>
<wgt id='31'> +3.8212588e+02 </wgt>
<wgt id='32'> +3.7265845e+02 </wgt>
<wgt id='33'> +5.2562565e+02 </wgt>
<wgt id='34'> +3.1237845e+02 </wgt>
<wgt id='35'> +4.3124582e+02 </wgt>
<wgt id='36'> +3.1758293e+02 </wgt>
<wgt id='37'> +3.1002440e+02 </wgt>
<wgt id='38'> +4.3124582e+02 </wgt>
<wgt id='39'> +2.6168628e+02 </wgt>
<wgt id='40'> +3.5876477e+02 </wgt>
<wgt id='41'> +2.6729282e+02 </wgt>
<wgt id='42'> +2.6116533e+02 </wgt>
<wgt id='43'> +3.5876477e+02 </wgt>
<wgt id='44'> +2.2183737e+02 </wgt>
<wgt id='45'> +5.0481800e+02 </wgt>
<wgt id='46'> +5.1521233e+02 </wgt>
<wgt id='47'> +6.1404070e+02 </wgt>
<wgt id='48'> +5.1036355e+02 </wgt>
<wgt id='49'> +4.3976076e+02 </wgt>
<wgt id='50'> +6.4938109e+02 </wgt>
<wgt id='51'> +4.8507535e+02 </wgt>
<wgt id='52'> +4.0702167e+02 </wgt>
<wgt id='53'> +5.6684460e+02 </wgt>
<wgt id='54'> +5.3413833e+02 </wgt>
<wgt id='55'> +6.1229070e+02 </wgt>
<wgt id='56'> +4.7750401e+02 </wgt>
<wgt id='57'> +5.4853596e+02 </wgt>
<wgt id='58'> +4.1310962e+02 </wgt>
<wgt id='59'> +5.4774936e+02 </wgt>
<wgt id='60'> +4.7913137e+02 </wgt>
<wgt id='61'> +3.7973994e+02 </wgt>
<wgt id='62'> +4.3140951e+02 </wgt>
<wgt id='63'> +5.3578206e+02 </wgt>
<wgt id='64'> +4.9915076e+02 </wgt>
<wgt id='65'> +4.0162820e+02 </wgt>
<wgt id='66'> +5.2174849e+02 </wgt>
<wgt id='67'> +4.9180021e+02 </wgt>
<wgt id='68'> +7.7347040e+02 </wgt>
<wgt id='69'> +6.1970598e+02 </wgt>
<wgt id='70'> +6.7482745e+02 </wgt>
<wgt id='71'> +4.3214392e+02 </wgt>
<wgt id='72'> +3.9304281e+02 </wgt>
<wgt id='73'> +4.2558561e+02 </wgt>
<wgt id='74'> +6.9038719e+02 </wgt>
<wgt id='75'> +6.4925259e+02 </wgt>
<wgt id='76'> +5.0266581e+02 </wgt>
<wgt id='77'> +4.2820075e+02 </wgt>
<wgt id='78'> +4.0533071e+02 </wgt>
<wgt id='79'> +5.7803577e+02 </wgt>
<wgt id='80'> +3.7567629e+02 </wgt>
<wgt id='81'> +5.5586266e+02 </wgt>
<wgt id='82'> +4.9488409e+02 </wgt>
<wgt id='83'> +5.1627533e+02 </wgt>
<wgt id='84'> +4.4484186e+02 </wgt>
<wgt id='85'> +4.2279353e+02 </wgt>
<wgt id='86'> +5.6584398e+02 </wgt>
<wgt id='87'> +4.6924878e+02 </wgt>
<wgt id='88'> +5.5505568e+02 </wgt>
<wgt id='89'> +3.1436269e+02 </wgt>
<wgt id='90'> +4.0472805e+02 </wgt>
<wgt id='91'> +3.7633420e+02 </wgt>
<wgt id='92'> +4.5218124e+02 </wgt>
<wgt id='93'> +5.3848587e+02 </wgt>
<wgt id='94'> +4.2527309e+02 </wgt>
<wgt id='95'> +5.1157348e+02 </wgt>
<wgt id='96'> +5.1387758e+02 </wgt>
<wgt id='97'> +4.1972114e+02 </wgt>
<wgt id='98'> +6.2814879e+02 </wgt>
<wgt id='99'> +3.7213215e+02 </wgt>
<wgt id='100'> +3.1348478e+02 </wgt>
<wgt id='101'> +6.3690717e+02 </wgt>
<wgt id='102'> +6.1528832e+02 </wgt>
<wgt id='103'> +4.3119718e+02 </wgt>
<wgt id='104'> +5.8024984e+02 </wgt>
<wgt id='105'> +5.1441108e+02 </wgt>
<wgt id='106'> +4.9921228e+02 </wgt>
<wgt id='107'> +5.1748420e+02 </wgt>
<wgt id='108'> +4.4687646e+02 </wgt>
<wgt id='109'> +4.9781012e+02 </wgt>
<wgt id='110'> +3.8753739e+02 </wgt>
<wgt id='111'> +4.6591782e+02 </wgt>
<wgt id='112'> +5.1143733e+02 </wgt>
<wgt id='113'> +6.1258728e+02 </wgt>
<wgt id='114'> +4.4808249e+02 </wgt>
<wgt id='115'> +4.8545534e+02 </wgt>
<wgt id='116'> +6.0078932e+02 </wgt>
<wgt id='117'> +5.2499923e+02 </wgt>
<wgt id='118'> +5.0931661e+02 </wgt>
<wgt id='119'> +5.3465171e+02 </wgt>
<wgt id='120'> +4.8569939e+02 </wgt>
<wgt id='121'> +4.4829392e+02 </wgt>
<wgt id='122'> +4.6549143e+02 </wgt>
<wgt id='123'> +4.4785839e+02 </wgt>
<wgt id='124'> +5.8010524e+02 </wgt>
<wgt id='125'> +7.6798018e+02 </wgt>
<wgt id='126'> +4.8315283e+02 </wgt>
<wgt id='127'> +4.5733648e+02 </wgt>
<wgt id='128'> +5.0138135e+02 </wgt>
<wgt id='129'> +4.8156866e+02 </wgt>
<wgt id='130'> +4.8882360e+02 </wgt>
<wgt id='131'> +4.2782562e+02 </wgt>
<wgt id='132'> +5.3073436e+02 </wgt>
<wgt id='133'> +5.6629398e+02 </wgt>
<wgt id='134'> +5.7104253e+02 </wgt>
<wgt id='135'> +4.7255269e+02 </wgt>
<wgt id='136'> +6.2350687e+02 </wgt>
<wgt id='137'> +6.1116566e+02 </wgt>
<wgt id='138'> +5.8476548e+02 </wgt>
<wgt id='139'> +5.3408350e+02 </wgt>
<wgt id='140'> +4.8218692e+02 </wgt>
<wgt id='141'> +6.9026978e+02 </wgt>
<wgt id='142'> +2.2861170e+02 </wgt>
<wgt id='143'> +5.1201369e+02 </wgt>
<wgt id='144'> +4.2208749e+02 </wgt>
<wgt id='145'> +4.5373410e+02 </wgt>
</rwgt>
</event>
<event>
 4      1 +5.0481800e+02 2.13540900e+02 7.54677100e-03 1.13879200e-01
       21 -1    0    0  501  502 +0.0000000000e+00 +0.0000000000e+00 +4.4553782531e+01 4.4553782531e+01 0.0000000000e+00 0.0000e+00 -1.0000e+00
       21 -1    0    0  502  503 -0.0000000000e+00 -0.0000000000e+00 -1.5356066573e+03 1.5356066573e+03 0.0000000000e+00 0.0000e+00 1.0000e+00
        6  1    1    2  501    0 -1.2113562172e+02 -3.1573560121e+01 -2.8925679970e+02 3.5954029638e+02 1.7300000000e+02 0.0000e+00 1.0000e+00
       -6  1    1    2    0  503 +1.2113562172e+02 +3.1573560121e+01 -1.2017960751e+03 1.2206201435e+03 1.7300000000e+02 0.0000e+00 1.0000e+00
<mgrwt>
<rscale>  2 0.21354093E+03</rscale>
<asrwt>0</asrwt>
<pdfrwt beam="1">  1       21 0.68544291E-02 0.21354093E+03</pdfrwt>
<pdfrwt beam="2">  1       21 0.23624714E+00 0.21354093E+03</pdfrwt>
<totfact> 0.12355770E+04</totfact>
</mgrwt>
<rwgt>
<wgt id='1'> +6.8934598e+02 </wgt>
<wgt id='2'> +6.1959240e+02 </wgt>
<wgt id='3'> +5.0481800e+02 </wgt>
<wgt id='4'> +6.8934598e+02 </wgt>
<wgt id='5'> +4.6265068e+02 </wgt>
<wgt id='6'> +6.1603495e+02 </wgt>
<wgt id='7'> +5.5088852e+02 </wgt>
<wgt id='8'> +4.4705167e+02 </wgt>
<wgt id='9'> +6.1603495e+02 </wgt>
<wgt id='10'> +4.1031986e+02 </wgt>
<wgt id='11'> +5.4554206e+02 </wgt>
<wgt id='12'> +4.8867369e+02 </wgt>
<wgt id='13'> +3.9785421e+02 </wgt>
<wgt id='14'> +5.4554206e+02 </wgt>
<wgt id='15'> +3.6570005e+02 </wgt>
<wgt id='16'> +5.6489370e+02 </wgt>
<wgt id='17'> +5.1397541e+02 </wgt>
<wgt id='18'> +4.2599377e+02 </wgt>
<wgt id='19'> +5.6489370e+02 </wgt>
<wgt id='20'> +3.9197060e+02 </wgt>
<wgt id='21'> +4.5698293e+02 </wgt>
<wgt id='22'> +3.7724729e+02 </wgt>
<wgt id='23'> +5.0481800e+02 </wgt>
<wgt id='24'> +3.4763447e+02 </wgt>
<wgt id='25'> +4.4705167e+02 </wgt>
<wgt id='26'> +4.0537337e+02 </wgt>
<wgt id='27'> +3.3573171e+02 </wgt>
<wgt id='28'> +4.4705167e+02 </wgt>
<wgt id='29'> +3.0983132e+02 </wgt>
<wgt id='30'> +4.7668901e+02 </wgt>
<wgt id='31'> +4.3570393e+02 </wgt>
<wgt id='32'> +3.6424653e+02 </wgt>
<wgt id='33'> +4.7668901e+02 </wgt>
<wgt id='34'> +3.3633289e+02 </wgt>
<wgt id='35'> +4.2599377e+02 </wgt>
<wgt id='36'> +3.8739063e+02 </wgt>
<wgt id='37'> +3.2256580e+02 </wgt>
<wgt id='38'> +4.2599377e+02 </wgt>
<wgt id='39'> +2.9828999e+02 </wgt>
<wgt id='40'> +3.7724729e+02 </wgt>
<wgt id='41'> +3.4364051e+02 </wgt>
<wgt id='42'> +2.8706784e+02 </wgt>
<wgt id='43'> +3.7724729e+02 </wgt>
<wgt id='44'> +2.6585275e+02 </wgt>
<wgt id='45'> +5.0481800e+02 </wgt>
<wgt id='46'> +5.1551071e+02 </wgt>
<wgt id='47'> +5.4153142e+02 </wgt>
<wgt id='48'> +5.0339965e+02 </wgt>
<wgt id='49'> +4.5406817e+02 </wgt>
<wgt id='50'> +5.9182169e+02 </wgt>
<wgt id='51'> +4.7123815e+02 </wgt>
<wgt id='52'> +4.4862734e+02 </wgt>
<wgt id='53'> +5.2277379e+02 </wgt>
<wgt id='54'> +5.4018229e+02 </wgt>
<wgt id='55'> +5.9448989e+02 </wgt>
<wgt id='56'> +4.9047279e+02 </wgt>
<wgt id='57'> +5.4166886e+02 </wgt>
<wgt id='58'> +4.4363991e+02 </wgt>
<wgt id='59'> +5.4762683e+02 </wgt>
<wgt id='60'> +4.9454009e+02 </wgt>
<wgt id='61'> +4.1757153e+02 </wgt>
<wgt id='62'> +4.5046633e+02 </wgt>
<wgt id='63'> +5.3876490e+02 </wgt>
<wgt id='64'> +5.0730822e+02 </wgt>
<wgt id='65'> +4.3122834e+02 </wgt>
<wgt id='66'> +5.1835643e+02 </wgt>
<wgt id='67'> +5.0843645e+02 </wgt>
<wgt id='68'> +6.5320815e+02 </wgt>
<wgt id='69'> +5.7065146e+02 </wgt>
<wgt id='70'> +5.8098897e+02 </wgt>
<wgt id='71'> +4.5233846e+02 </wgt>
<wgt id='72'> +4.4361884e+02 </wgt>
<wgt id='73'> +4.4834536e+02 </wgt>
<wgt id='74'> +6.0872037e+02 </wgt>
<wgt id='75'> +5.7958855e+02 </wgt>
<wgt id='76'> +5.2107480e+02 </wgt>
<wgt id='77'> +4.6061821e+02 </wgt>
<wgt id='78'> +4.2110287e+02 </wgt>
<wgt id='79'> +5.5844432e+02 </wgt>
<wgt id='80'> +4.2673056e+02 </wgt>
<wgt id='81'> +5.3961825e+02 </wgt>
<wgt id='82'> +5.0314112e+02 </wgt>
<wgt id='83'> +4.9948053e+02 </wgt>
<wgt id='84'> +4.7643731e+02 </wgt>
<wgt id='85'> +4.3774221e+02 </wgt>
<wgt id='86'> +5.4467369e+02 </wgt>
<wgt id='87'> +4.8896247e+02 </wgt>
<wgt id='88'> +5.0076786e+02 </wgt>
<wgt id='89'> +3.8673853e+02 </wgt>
<wgt id='90'> +4.4463385e+02 </wgt>
<wgt id='91'> +4.1285884e+02 </wgt>
<wgt id='92'> +4.7643218e+02 </wgt>
<wgt id='93'> +5.1562065e+02 </wgt>
<wgt id='94'> +4.5524578e+02 </wgt>
<wgt id='95'> +5.3058542e+02 </wgt>
<wgt id='96'> +5.2813554e+02 </wgt>
<wgt id='97'> +4.4231976e+02 </wgt>
<wgt id='98'> +5.7101648e+02 </wgt>
<wgt id='99'> +4.0252525e+02 </wgt>
<wgt id='100'> +3.5732533e+02 </wgt>
<wgt id='101'> +5.9591490e+02 </wgt>
<wgt id='102'> +5.7935314e+02 </wgt>
<wgt id='103'> +4.5713602e+02 </wgt>
<wgt id='104'> +5.5525895e+02 </wgt>
<wgt id='105'> +5.1539712e+02 </wgt>
<wgt id='106'> +5.0324900e+02 </wgt>
<wgt id='107'> +5.0251576e+02 </wgt>
<wgt id='108'> +4.7705993e+02 </wgt>
<wgt id='109'> +5.0296567e+02 </wgt>
<wgt id='110'> +4.4288753e+02 </wgt>
<wgt id='111'> +4.8459791e+02 </wgt>
<wgt id='112'> +5.3380556e+02 </wgt>
<wgt id='113'> +5.6473770e+02 </wgt>
<wgt id='114'> +5.2470339e+02 </wgt>
<wgt id='115'> +4.6811549e+02 </wgt>
<wgt id='116'> +5.6515927e+02 </wgt>
<wgt id='117'> +5.0101245e+02 </wgt>
<wgt id='118'> +5.1046485e+02 </wgt>
<wgt id='119'> +5.6852164e+02 </wgt>
<wgt id='120'> +5.0413045e+02 </wgt>
<wgt id='121'> +4.8303845e+02 </wgt>
<wgt id='122'> +4.8732999e+02 </wgt>
<wgt id='123'> +4.6724189e+02 </wgt>
<wgt id='124'> +5.6765222e+02 </wgt>
<wgt id='125'> +6.6954211e+02 </wgt>
<wgt id='126'> +4.8576825e+02 </wgt>
<wgt id='127'> +4.6796338e+02 </wgt>
<wgt id='128'> +4.9957673e+02 </wgt>
<wgt id='129'> +4.9657323e+02 </wgt>
<wgt id='130'> +5.1890858e+02 </wgt>
<wgt id='131'> +4.4497054e+02 </wgt>
<wgt id='132'> +5.4671056e+02 </wgt>
<wgt id='133'> +5.5848527e+02 </wgt>
<wgt id='134'> +5.4461764e+02 </wgt>
<wgt id='135'> +4.7419897e+02 </wgt>
<wgt id='136'> +6.0950166e+02 </wgt>
<wgt id='137'> +5.5909132e+02 </wgt>
<wgt id='138'> +5.3304990e+02 </wgt>
<wgt id='139'> +5.2114655e+02 </wgt>
<wgt id='140'> +4.8861203e+02 </wgt>
<wgt id='141'> +6.0898813e+02 </wgt>
<wgt id='142'> +3.0365564e+02 </wgt>
<wgt id='143'> +5.1279162e+02 </wgt>
<wgt id='144'> +4.4542107e+02 </wgt>
<wgt id='145'> +4.5563636e+02 </wgt>
</rwgt>
</event>
<event>
 4      1 +5.0481800e+02 2.45905400e+02 7.54677100e-03 1.11592000e-01
       21 -1    0    0  503  502 +0.0000000000e+00 +0.0000000000e+00 +2.8505412620e+02 2.8505412620e+02 0.0000000000e+00 0.0000e+00 1.0000e+00
       21 -1    0    0  501  503 -0.0000000000e+00 -0.0000000000e+00 -2.1402007648e+02 2.1402007648e+02 0.0000000000e+00 0.0000e+00 1.0000e+00
        6  1    1    2  501    0 +1.0235385555e+02 -1.4164792059e+02 +1.2086656073e+01 2.4620221853e+02 1.7300000000e+02 0.0000e+00 1.0000e+00
       -6  1    1    2    0  502 -1.0235385555e+02 +1.4164792059e+02 +5.8947393652e+01 2.5287198416e+02 1.7300000000e+02 0.0000e+00 1.0000e+00
<mgrwt>
<rscale>  2 0.24590536E+03</rscale>
<asrwt>0</asrwt>
<pdfrwt beam="1">  1       21 0.43854481E-01 0.24590536E+03</pdfrwt>
<pdfrwt beam="2">  1       21 0.32926165E-01 0.24590536E+03</pdfrwt>
<totfact> 0.43279683E+04</totfact>
</mgrwt>
<rwgt>
<wgt id='1'> +6.4984313e+02 </wgt>
<wgt id='2'> +5.0722884e+02 </wgt>
<wgt id='3'> +5.0481800e+02 </wgt>
<wgt id='4'> +6.4984313e+02 </wgt>
<wgt id='5'> +5.0402951e+02 </wgt>
<wgt id='6'> +6.1138367e+02 </wgt>
<wgt id='7'> +4.7265806e+02 </wgt>
<wgt id='8'> +4.7041291e+02 </wgt>
<wgt id='9'> +6.1138368e+02 </wgt>
<wgt id='10'> +4.6967866e+02 </wgt>
<wgt id='11'> +5.6971577e+02 </wgt>
<wgt id='12'> +4.4068715e+02 </wgt>
<wgt id='13'> +4.3860157e+02 </wgt>
<wgt id='14'> +5.6971577e+02 </wgt>
<wgt id='15'> +4.3791952e+02 </wgt>
<wgt id='16'> +5.3657388e+02 </wgt>
<wgt id='17'> +4.2909490e+02 </wgt>
<wgt id='18'> +4.2717110e+02 </wgt>
<wgt id='19'> +5.3657388e+02 </wgt>
<wgt id='20'> +4.2654164e+02 </wgt>
<wgt id='21'> +3.9984943e+02 </wgt>
<wgt id='22'> +3.9805791e+02 </wgt>
<wgt id='23'> +5.0481800e+02 </wgt>
<wgt id='24'> +3.9747178e+02 </wgt>
<wgt id='25'> +4.7041291e+02 </wgt>
<wgt id='26'> +3.7280335e+02 </wgt>
<wgt id='27'> +3.7113953e+02 </wgt>
<wgt id='28'> +4.7041291e+02 </wgt>
<wgt id='29'> +3.7059519e+02 </wgt>
<wgt id='30'> +4.5404255e+02 </wgt>
<wgt id='31'> +3.6771447e+02 </wgt>
<wgt id='32'> +3.6615116e+02 </wgt>
<wgt id='33'> +4.5404255e+02 </wgt>
<wgt id='34'> +3.6563957e+02 </wgt>
<wgt id='35'> +4.2717110e+02 </wgt>
<wgt id='36'> +3.4265246e+02 </wgt>
<wgt id='37'> +3.4119669e+02 </wgt>
<wgt id='38'> +4.2717110e+02 </wgt>
<wgt id='39'> +3.4072034e+02 </wgt>
<wgt id='40'> +3.9805791e+02 </wgt>
<wgt id='41'> +3.1947522e+02 </wgt>
<wgt id='42'> +3.1812351e+02 </wgt>
<wgt id='43'> +3.9805791e+02 </wgt>
<wgt id='44'> +3.1768121e+02 </wgt>
<wgt id='45'> +5.0481800e+02 </wgt>
<wgt id='46'> +5.0737710e+02 </wgt>
<wgt id='47'> +5.2470073e+02 </wgt>
<wgt id='48'> +5.0812712e+02 </wgt>
<wgt id='49'> +5.0360941e+02 </wgt>
<wgt id='50'> +5.9640345e+02 </wgt>
<wgt id='51'> +4.9518936e+02 </wgt>
<wgt id='52'> +5.0215330e+02 </wgt>
<wgt id='53'> +5.0927494e+02 </wgt>
<wgt id='54'> +5.0773226e+02 </wgt>
<wgt id='55'> +4.5011370e+02 </wgt>
<wgt id='56'> +4.6735782e+02 </wgt>
<wgt id='57'> +4.9067603e+02 </wgt>
<wgt id='58'> +5.0554105e+02 </wgt>
<wgt id='59'> +4.9922012e+02 </wgt>
<wgt id='60'> +4.8596981e+02 </wgt>
<wgt id='61'> +4.8794070e+02 </wgt>
<wgt id='62'> +4.9885021e+02 </wgt>
<wgt id='63'> +5.0537304e+02 </wgt>
<wgt id='64'> +4.9787266e+02 </wgt>
<wgt id='65'> +5.9592425e+02 </wgt>
<wgt id='66'> +4.9368806e+02 </wgt>
<wgt id='67'> +5.0940533e+02 </wgt>
<wgt id='68'> +5.4350996e+02 </wgt>
<wgt id='69'> +4.9628389e+02 </wgt>
<wgt id='70'> +4.9602941e+02 </wgt>
<wgt id='71'> +5.1408612e+02 </wgt>
<wgt id='72'> +4.8511618e+02 </wgt>
<wgt id='73'> +4.9679385e+02 </wgt>
<wgt id='74'> +5.2252391e+02 </wgt>
<wgt id='75'> +5.1704712e+02 </wgt>
<wgt id='76'> +4.8907922e+02 </wgt>
<wgt id='77'> +4.8767883e+02 </wgt>
<wgt id='78'> +5.0263798e+02 </wgt>
<wgt id='79'> +4.8571446e+02 </wgt>
<wgt id='80'> +4.9962254e+02 </wgt>
<wgt id='81'> +4.9452821e+02 </wgt>
<wgt id='82'> +5.1737822e+02 </wgt>
<wgt id='83'> +5.1711259e+02 </wgt>
<wgt id='84'> +5.5640694e+02 </wgt>
<wgt id='85'> +5.3156601e+02 </wgt>
<wgt id='86'> +5.0342022e+02 </wgt>
<wgt id='87'> +5.0563602e+02 </wgt>
<wgt id='88'> +5.1492519e+02 </wgt>
<wgt id='89'> +5.1762809e+02 </wgt>
<wgt id='90'> +5.1086292e+02 </wgt>
<wgt id='91'> +5.3663734e+02 </wgt>
<wgt id='92'> +4.5924134e+02 </wgt>
<wgt id='93'> +4.9763813e+02 </wgt>
<wgt id='94'> +5.0019124e+02 </wgt>
<wgt id='95'> +4.8244060e+02 </wgt>
<wgt id='96'> +5.4950289e+02 </wgt>
<wgt id='97'> +5.1118185e+02 </wgt>
<wgt id='98'> +4.8213341e+02 </wgt>
<wgt id='99'> +4.8902608e+02 </wgt>
<wgt id='100'> +4.9654580e+02 </wgt>
<wgt id='101'> +5.3488547e+02 </wgt>
<wgt id='102'> +4.9449022e+02 </wgt>
<wgt id='103'> +5.5005498e+02 </wgt>
<wgt id='104'> +5.0578156e+02 </wgt>
<wgt id='105'> +5.2246629e+02 </wgt>
<wgt id='106'> +4.6003559e+02 </wgt>
<wgt id='107'> +4.9434089e+02 </wgt>
<wgt id='108'> +4.4864960e+02 </wgt>
<wgt id='109'> +4.7154213e+02 </wgt>
<wgt id='110'> +5.0455251e+02 </wgt>
<wgt id='111'> +4.9001329e+02 </wgt>
<wgt id='112'> +4.7978267e+02 </wgt>
<wgt id='113'> +4.6151586e+02 </wgt>
<wgt id='114'> +4.9931848e+02 </wgt>
<wgt id='115'> +5.0240963e+02 </wgt>
<wgt id='116'> +5.0828311e+02 </wgt>
<wgt id='117'> +5.1042781e+02 </wgt>
<wgt id='118'> +5.2081930e+02 </wgt>
<wgt id='119'> +4.8374752e+02 </wgt>
<wgt id='120'> +5.0099038e+02 </wgt>
<wgt id='121'> +4.8873757e+02 </wgt>
<wgt id='122'> +4.9761570e+02 </wgt>
<wgt id='123'> +5.1267987e+02 </wgt>
<wgt id='124'> +5.4290279e+02 </wgt>
<wgt id='125'> +5.4378569e+02 </wgt>
<wgt id='126'> +5.2615692e+02 </wgt>
<wgt id='127'> +5.2101724e+02 </wgt>
<wgt id='128'> +4.6734369e+02 </wgt>
<wgt id='129'> +5.7240293e+02 </wgt>
<wgt id='130'> +5.1037846e+02 </wgt>
<wgt id='131'> +5.4044243e+02 </wgt>
<wgt id='132'> +5.0085087e+02 </wgt>
<wgt id='133'> +5.0397302e+02 </wgt>
<wgt id='134'> +4.7512630e+02 </wgt>
<wgt id='135'> +5.1760407e+02 </wgt>
<wgt id='136'> +4.8495779e+02 </wgt>
<wgt id='137'> +4.7702937e+02 </wgt>
<wgt id='138'> +4.6324950e+02 </wgt>
<wgt id='139'> +5.1563569e+02 </wgt>
<wgt id='140'> +5.3514511e+02 </wgt>
<wgt id='141'> +5.0518739e+02 </wgt>
<wgt id='142'> +5.0514515e+02 </wgt>
<wgt id='143'> +5.0124051e+02 </wgt>
<wgt id='144'> +5.0215921e+02 </wgt>
<wgt id='145'> +5.0601656e+02 </wgt>
</rwgt>
</event>
<event>
 4      1 +5.0481800e+02 1.84973000e+02 7.54677100e-03 1.16307500e-01
       21 -1    0    0  501  502 +0.0000000000e+00 +0.0000000000e+00 +1.0697746678e+02 1.0697746678e+02 0.0000000000e+00 0.0000e+00 -1.0000e+00
       21 -1    0    0  502  503 -0.0000000000e+00 -0.0000000000e+00 -3.3127108503e+02 3.3127108503e+02 0.0000000000e+00 0.0000e+00 -1.0000e+00
        6  1    1    2  501    0 -6.2586092801e+01 -1.9208831097e+01 -1.5286254081e+02 2.3996240244e+02 1.7300000000e+02 0.0000e+00 1.0000e+00
       -6  1    1    2    0  503 +6.2586092801e+01 +1.9208831097e+01 -7.1431077442e+01 1.9828614936e+02 1.7300000000e+02 0.0000e+00 1.0000e+00
<mgrwt>
<rscale>  2 0.18497297E+03</rscale>
<asrwt>0</asrwt>
<pdfrwt beam="1">  1       21 0.16458072E-01 0.18497297E+03</pdfrwt>
<pdfrwt beam="2">  1       21 0.50964782E-01 0.18497297E+03</pdfrwt>
<totfact> 0.12155676E+05</totfact>
</mgrwt>
<rwgt>
<wgt id='1'> +6.4244973e+02 </wgt>
<wgt id='2'> +5.9603875e+02 </wgt>
<wgt id='3'> +5.0481800e+02 </wgt>
<wgt id='4'> +6.4244973e+02 </wgt>
<wgt id='5'> +5.0183525e+02 </wgt>
<wgt id='6'> +6.2064244e+02 </wgt>
<wgt id='7'> +5.7187267e+02 </wgt>
<wgt id='8'> +4.7815979e+02 </wgt>
<wgt id='9'> +6.2064245e+02 </wgt>
<wgt id='10'> +4.7524181e+02 </wgt>
<wgt id='11'> +5.8786782e+02 </wgt>
<wgt id='12'> +5.4117481e+02 </wgt>
<wgt id='13'> +4.5208775e+02 </wgt>
<wgt id='14'> +5.8786782e+02 </wgt>
<wgt id='15'> +4.4931881e+02 </wgt>
<wgt id='16'> +5.2255561e+02 </wgt>
<wgt id='17'> +4.9026139e+02 </wgt>
<wgt id='18'> +4.2450756e+02 </wgt>
<wgt id='19'> +5.2255561e+02 </wgt>
<wgt id='20'> +4.2221849e+02 </wgt>
<wgt id='21'> +4.7038400e+02 </wgt>
<wgt id='22'> +4.0209035e+02 </wgt>
<wgt id='23'> +5.0481800e+02 </wgt>
<wgt id='24'> +3.9984413e+02 </wgt>
<wgt id='25'> +4.7815979e+02 </wgt>
<wgt id='26'> +4.4513400e+02 </wgt>
<wgt id='27'> +3.8016606e+02 </wgt>
<wgt id='28'> +4.7815979e+02 </wgt>
<wgt id='29'> +3.7803384e+02 </wgt>
<wgt id='30'> +4.3942333e+02 </wgt>
<wgt id='31'> +4.1423628e+02 </wgt>
<wgt id='32'> +3.6203752e+02 </wgt>
<wgt id='33'> +4.3942333e+02 </wgt>
<wgt id='34'> +3.6020035e+02 </wgt>
<wgt id='35'> +4.2450756e+02 </wgt>
<wgt id='36'> +3.9744129e+02 </wgt>
<wgt id='37'> +3.4291919e+02 </wgt>
<wgt id='38'> +4.2450756e+02 </wgt>
<wgt id='39'> +3.4111248e+02 </wgt>
<wgt id='40'> +4.0209034e+02 </wgt>
<wgt id='41'> +3.7610682e+02 </wgt>
<wgt id='42'> +3.2422126e+02 </wgt>
<wgt id='43'> +4.0209035e+02 </wgt>
<wgt id='44'> +3.2250582e+02 </wgt>
<wgt id='45'> +5.0481800e+02 </wgt>
<wgt id='46'> +5.0316994e+02 </wgt>
<wgt id='47'> +5.2000759e+02 </wgt>
<wgt id='48'> +5.0461158e+02 </wgt>
<wgt id='49'> +5.0366902e+02 </wgt>
<wgt id='50'> +5.7933415e+02 </wgt>
<wgt id='51'> +4.9522978e+02 </wgt>
<wgt id='52'> +5.0213566e+02 </wgt>
<wgt id='53'> +5.1097516e+02 </wgt>
<wgt id='54'> +5.0768417e+02 </wgt>
<wgt id='55'> +4.5578844e+02 </wgt>
<wgt id='56'> +4.7269062e+02 </wgt>
<wgt id='57'> +4.9333692e+02 </wgt>
<wgt id='58'> +5.1022657e+02 </wgt>
<wgt id='59'> +4.9772582e+02 </wgt>
<wgt id='60'> +4.8507966e+02 </wgt>
<wgt id='61'> +4.9324626e+02 </wgt>
<wgt id='62'> +4.9772097e+02 </wgt>
<wgt id='63'> +5.0524712e+02 </wgt>
<wgt id='64'> +5.0188428e+02 </wgt>
<wgt id='65'> +5.8882019e+02 </wgt>
<wgt id='66'> +4.9273088e+02 </wgt>
<wgt id='67'> +5.0920924e+02 </wgt>
<wgt id='68'> +5.3798493e+02 </wgt>
<wgt id='69'> +4.8938832e+02 </wgt>
<wgt id='70'> +4.9738435e+02 </wgt>
<wgt id='71'> +5.1432156e+02 </wgt>
<wgt id='72'> +4.9666473e+02 </wgt>
<wgt id='73'> +4.9944310e+02 </wgt>
<wgt id='74'> +5.1749423e+02 </wgt>
<wgt id='75'> +5.1449852e+02 </wgt>
<wgt id='76'> +4.9214197e+02 </wgt>
<wgt id='77'> +4.8633996e+02 </wgt>
<wgt id='78'> +5.0615270e+02 </wgt>
<wgt id='79'> +4.8452740e+02 </wgt>
<wgt id='80'> +5.0119153e+02 </wgt>
<wgt id='81'> +4.9692922e+02 </wgt>
<wgt id='82'> +5.1784645e+02 </wgt>
<wgt id='83'> +5.1256519e+02 </wgt>
<wgt id='84'> +5.4991807e+02 </wgt>
<wgt id='85'> +5.2887895e+02 </wgt>
<wgt id='86'> +5.0003238e+02 </wgt>
<wgt id='87'> +5.0427048e+02 </wgt>
<wgt id='88'> +5.1132523e+02 </wgt>
<wgt id='89'> +5.1533022e+02 </wgt>
<wgt id='90'> +5.1044240e+02 </wgt>
<wgt id='91'> +5.3556535e+02 </wgt>
<wgt id='92'> +4.7125934e+02 </wgt>
<wgt id='93'> +4.9537935e+02 </wgt>
<wgt id='94'> +5.0371351e+02 </wgt>
<wgt id='95'> +4.8736463e+02 </wgt>
<wgt id='96'> +5.3974555e+02 </wgt>
<wgt id='97'> +5.1306246e+02 </wgt>
<wgt id='98'> +4.8245928e+02 </wgt>
<wgt id='99'> +4.9125527e+02 </wgt>
<wgt id='100'> +5.0402678e+02 </wgt>
<wgt id='101'> +5.2634081e+02 </wgt>
<wgt id='102'> +4.8817795e+02 </wgt>
<wgt id='103'> +5.4461331e+02 </wgt>
<wgt id='104'> +5.0226448e+02 </wgt>
<wgt id='105'> +5.2622218e+02 </wgt>
<wgt id='106'> +4.6992834e+02 </wgt>
<wgt id='107'> +5.0208283e+02 </wgt>
<wgt id='108'> +4.5746622e+02 </wgt>
<wgt id='109'> +4.7791524e+02 </wgt>
<wgt id='110'> +5.0680406e+02 </wgt>
<wgt id='111'> +4.9352558e+02 </wgt>
<wgt id='112'> +4.8400448e+02 </wgt>
<wgt id='113'> +4.6704585e+02 </wgt>
<wgt id='114'> +5.0671031e+02 </wgt>
<wgt id='115'> +5.0653248e+02 </wgt>
<wgt id='116'> +5.0131170e+02 </wgt>
<wgt id='117'> +5.1133982e+02 </wgt>
<wgt id='118'> +5.1440012e+02 </wgt>
<wgt id='119'> +4.8775044e+02 </wgt>
<wgt id='120'> +5.0288979e+02 </wgt>
<wgt id='121'> +4.9318730e+02 </wgt>
<wgt id='122'> +4.9917205e+02 </wgt>
<wgt id='123'> +5.0931046e+02 </wgt>
<wgt id='124'> +5.3485909e+02 </wgt>
<wgt id='125'> +5.3663053e+02 </wgt>
<wgt id='126'> +5.2132793e+02 </wgt>
<wgt id='127'> +5.1785801e+02 </wgt>
<wgt id='128'> +4.7042428e+02 </wgt>
<wgt id='129'> +5.6813989e+02 </wgt>
<wgt id='130'> +5.0620955e+02 </wgt>
<wgt id='131'> +5.3894650e+02 </wgt>
<wgt id='132'> +5.0027830e+02 </wgt>
<wgt id='133'> +4.9977723e+02 </wgt>
<wgt id='134'> +4.7676830e+02 </wgt>
<wgt id='135'> +5.1716882e+02 </wgt>
<wgt id='136'> +4.8582076e+02 </wgt>
<wgt id='137'> +4.7511972e+02 </wgt>
<wgt id='138'> +4.5692152e+02 </wgt>
<wgt id='139'> +5.1337842e+02 </wgt>
<wgt id='140'> +5.3597054e+02 </wgt>
<wgt id='141'> +5.0329210e+02 </wgt>
<wgt id='142'> +5.0954605e+02 </wgt>
<wgt id='143'> +5.0100058e+02 </wgt>
<wgt id='144'> +5.0653053e+02 </wgt>
<wgt id='145'> +5.0578354e+02 </wgt>
</rwgt>
</event>
<event>
 4      1 +5.0481800e+02 1.94363500e+02 7.54677100e-03 1.15458400e-01
        2 -1    0    0  502    0 +0.0000000000e+00 +0.0000000000e+00 +1.9291567189e+03 1.9291567189e+03 0.0000000000e+00 0.0000e+00 -1.0000e+00
       -2 -1    0    0    0  501 -0.0000000000e+00 -0.0000000000e+00 -3.2164597885e+01 3.2164597885e+01 0.0000000000e+00 0.0000e+00 1.0000e+00
        6  1    1    2  502    0 -3.1544642336e+01 -8.2783372857e+01 +3.3514201977e+02 3.8742395989e+02 1.7300000000e+02 0.0000e+00 1.0000e+00
       -6  1    1    2    0  501 +3.1544642336e+01 +8.2783372857e+01 +1.5618501013e+03 1.5738973569e+03 1.7300000000e+02 0.0000e+00 -1.0000e+00
<mgrwt>
<rscale>  2 0.19436345E+03</rscale>
<asrwt>0</asrwt>
<pdfrwt beam="1">  1        2 0.29679325E+00 0.19436345E+03</pdfrwt>
<pdfrwt beam="2">  1       -2 0.49484012E-02 0.19436345E+03</pdfrwt>
<totfact> 0.16202678E+03</totfact>
</mgrwt>
<rwgt>
<wgt id='1'> +6.2504787e+02 </wgt>
<wgt id='2'> +6.3165786e+02 </wgt>
<wgt id='3'> +5.0481800e+02 </wgt>
<wgt id='4'> +6.2504787e+02 </wgt>
<wgt id='5'> +4.7171094e+02 </wgt>
<wgt id='6'> +6.1920405e+02 </wgt>
<wgt id='7'> +6.2591380e+02 </wgt>
<wgt id='8'> +4.9759831e+02 </wgt>
<wgt id='9'> +6.1920405e+02 </wgt>
<wgt id='10'> +4.6424990e+02 </wgt>
<wgt id='11'> +6.1034845e+02 </wgt>
<wgt id='12'> +6.1709430e+02 </wgt>
<wgt id='13'> +4.8857761e+02 </wgt>
<wgt id='14'> +6.1034845e+02 </wgt>
<wgt id='15'> +4.5532571e+02 </wgt>
<wgt id='16'> +5.0958229e+02 </wgt>
<wgt id='17'> +5.1417171e+02 </wgt>
<wgt id='18'> +4.2511026e+02 </wgt>
<wgt id='19'> +5.0958229e+02 </wgt>
<wgt id='20'> +3.9925915e+02 </wgt>
<wgt id='21'> +5.0949602e+02 </wgt>
<wgt id='22'> +4.1903052e+02 </wgt>
<wgt id='23'> +5.0481800e+02 </wgt>
<wgt id='24'> +3.9294408e+02 </wgt>
<wgt id='25'> +4.9759831e+02 </wgt>
<wgt id='26'> +5.0231693e+02 </wgt>
<wgt id='27'> +4.1143413e+02 </wgt>
<wgt id='28'> +4.9759831e+02 </wgt>
<wgt id='29'> +3.8539059e+02 </wgt>
<wgt id='30'> +4.2912230e+02 </wgt>
<wgt id='31'> +4.3259025e+02 </wgt>
<wgt id='32'> +3.6287751e+02 </wgt>
<wgt id='33'> +4.2912230e+02 </wgt>
<wgt id='34'> +3.4230251e+02 </wgt>
<wgt id='35'> +4.2511026e+02 </wgt>
<wgt id='36'> +4.2865643e+02 </wgt>
<wgt id='37'> +3.5768779e+02 </wgt>
<wgt id='38'> +4.2511026e+02 </wgt>
<wgt id='39'> +3.3688832e+02 </wgt>
<wgt id='40'> +4.1903052e+02 </wgt>
<wgt id='41'> +4.2261641e+02 </wgt>
<wgt id='42'> +3.5120345e+02 </wgt>
<wgt id='43'> +4.1903052e+02 </wgt>
<wgt id='44'> +3.3041238e+02 </wgt>
<wgt id='45'> +5.0481800e+02 </wgt>
<wgt id='46'> +5.1275076e+02 </wgt>
<wgt id='47'> +4.8803874e+02 </wgt>
<wgt id='48'> +4.8888897e+02 </wgt>
<wgt id='49'> +4.9502691e+02 </wgt>
<wgt id='50'> +4.4817486e+02 </wgt>
<wgt id='51'> +4.9185147e+02 </wgt>
<wgt id='52'> +4.9831252e+02 </wgt>
<wgt id='53'> +5.2269557e+02 </wgt>
<wgt id='54'> +4.9693176e+02 </wgt>
<wgt id='55'> +4.7773207e+02 </wgt>
<wgt id='56'> +5.3413426e+02 </wgt>
<wgt id='57'> +4.8525974e+02 </wgt>
<wgt id='58'> +5.4072718e+02 </wgt>
<wgt id='59'> +4.5858902e+02 </wgt>
<wgt id='60'> +5.1984600e+02 </wgt>
<wgt id='61'> +5.5489928e+02 </wgt>
<wgt id='62'> +5.1794487e+02 </wgt>
<wgt id='63'> +5.0859762e+02 </wgt>
<wgt id='64'> +4.9681898e+02 </wgt>
<wgt id='65'> +4.9359123e+02 </wgt>
<wgt id='66'> +5.0620829e+02 </wgt>
<wgt id='67'> +5.1765700e+02 </wgt>
<wgt id='68'> +4.3351087e+02 </wgt>
<wgt id='69'> +4.7878120e+02 </wgt>
<wgt id='70'> +5.0153311e+02 </wgt>
<wgt id='71'> +5.1154129e+02 </wgt>
<wgt id='72'> +5.3511266e+02 </wgt>
<wgt id='73'> +5.2912477e+02 </wgt>
<wgt id='74'> +4.4873917e+02 </wgt>
<wgt id='75'> +4.7929918e+02 </wgt>
<wgt id='76'> +5.3164320e+02 </wgt>
<wgt id='77'> +5.1470129e+02 </wgt>
<wgt id='78'> +5.3744597e+02 </wgt>
<wgt id='79'> +5.0944923e+02 </wgt>
<wgt id='80'> +5.5509567e+02 </wgt>
<wgt id='81'> +5.1803126e+02 </wgt>
<wgt id='82'> +5.0224873e+02 </wgt>
<wgt id='83'> +4.9901715e+02 </wgt>
<wgt id='84'> +5.1203974e+02 </wgt>
<wgt id='85'> +5.0413546e+02 </wgt>
<wgt id='86'> +5.0233180e+02 </wgt>
<wgt id='87'> +5.1140496e+02 </wgt>
<wgt id='88'> +5.0790088e+02 </wgt>
<wgt id='89'> +5.2529724e+02 </wgt>
<wgt id='90'> +5.4290360e+02 </wgt>
<wgt id='91'> +4.6731750e+02 </wgt>
<wgt id='92'> +5.4770563e+02 </wgt>
<wgt id='93'> +4.9439021e+02 </wgt>
<wgt id='94'> +5.1773570e+02 </wgt>
<wgt id='95'> +5.0195144e+02 </wgt>
<wgt id='96'> +4.8785882e+02 </wgt>
<wgt id='97'> +5.3201736e+02 </wgt>
<wgt id='98'> +5.1550071e+02 </wgt>
<wgt id='99'> +5.4392285e+02 </wgt>
<wgt id='100'> +5.2862366e+02 </wgt>
<wgt id='101'> +4.3516130e+02 </wgt>
<wgt id='102'> +4.7395094e+02 </wgt>
<wgt id='103'> +4.8914879e+02 </wgt>
<wgt id='104'> +4.8528594e+02 </wgt>
<wgt id='105'> +5.0626682e+02 </wgt>
<wgt id='106'> +5.5411762e+02 </wgt>
<wgt id='107'> +5.0006840e+02 </wgt>
<wgt id='108'> +5.5809694e+02 </wgt>
<wgt id='109'> +5.1238341e+02 </wgt>
<wgt id='110'> +5.3268275e+02 </wgt>
<wgt id='111'> +5.3274527e+02 </wgt>
<wgt id='112'> +5.1719511e+02 </wgt>
<wgt id='113'> +5.1213365e+02 </wgt>
<wgt id='114'> +5.0076356e+02 </wgt>
<wgt id='115'> +5.2469841e+02 </wgt>
<wgt id='116'> +4.5913769e+02 </wgt>
<wgt id='117'> +4.9948042e+02 </wgt>
<wgt id='118'> +4.8141907e+02 </wgt>
<wgt id='119'> +5.1201392e+02 </wgt>
<wgt id='120'> +5.1346987e+02 </wgt>
<wgt id='121'> +5.0358746e+02 </wgt>
<wgt id='122'> +5.2358319e+02 </wgt>
<wgt id='123'> +5.4013690e+02 </wgt>
<wgt id='124'> +4.6096370e+02 </wgt>
<wgt id='125'> +4.2368774e+02 </wgt>
<wgt id='126'> +5.0802580e+02 </wgt>
<wgt id='127'> +4.9784953e+02 </wgt>
<wgt id='128'> +5.0262039e+02 </wgt>
<wgt id='129'> +4.6596094e+02 </wgt>
<wgt id='130'> +4.9705117e+02 </wgt>
<wgt id='131'> +5.0323583e+02 </wgt>
<wgt id='132'> +4.7339793e+02 </wgt>
<wgt id='133'> +4.9446055e+02 </wgt>
<wgt id='134'> +4.9432037e+02 </wgt>
<wgt id='135'> +4.8425060e+02 </wgt>
<wgt id='136'> +4.8807475e+02 </wgt>
<wgt id='137'> +5.2518044e+02 </wgt>
<wgt id='138'> +5.1490703e+02 </wgt>
<wgt id='139'> +4.9926706e+02 </wgt>
<wgt id='140'> +5.0084940e+02 </wgt>
<wgt id='141'> +4.7638856e+02 </wgt>
<wgt id='142'> +5.5565425e+02 </wgt>
<wgt id='143'> +5.1835711e+02 </wgt>
<wgt id='144'> +5.3950798e+02 </wgt>
<wgt id='145'> +5.3502820e+02 </wgt>
</rwgt>
</event>
<event>
 4      1 +5.0481800e+02 2.15231100e+02 7.54677100e-03 1.13748900e-01
       21 -1    0    0  503  502 +0.0000000000e+00 +0.0000000000e+00 +8.1179117954e+01 8.1179117954e+01 0.0000000000e+00 0.0000e+00 1.0000e+00
       21 -1    0    0  501  503 -0.0000000000e+00 -0.0000000000e+00 -8.9832748592e+02 8.9832748592e+02 0.0000000000e+00 0.0000e+00 -1.0000e+00
        6  1    1    2  501    0 -3.7855185157e+01 +1.2232095672e+02 -7.0436647968e+02 7.3651650979e+02 1.7300000000e+02 0.0000e+00 1.0000e+00
       -6  1    1    2    0  502 +3.7855185157e+01 -1.2232095672e+02 -1.1278188828e+02 2.4299009408e+02 1.7300000000e+02 0.0000e+00 1.0000e+00
<mgrwt>
<rscale>  2 0.21523111E+03</rscale>
<asrwt>0</asrwt>
<pdfrwt beam="1">  1       21 0.12489095E-01 0.21523111E+03</pdfrwt>
<pdfrwt beam="2">  1       21 0.13820423E+00 0.21523111E+03</pdfrwt>
<totfact> 0.19917864E+04</totfact>
</mgrwt>
<rwgt>
<wgt id='1'> +6.6653158e+02 </wgt>
<wgt id='2'> +5.7153284e+02 </wgt>
<wgt id='3'> +5.0481800e+02 </wgt>
<wgt id='4'> +6.6653158e+02 </wgt>
<wgt id='5'> +4.6267082e+02 </wgt>
<wgt id='6'> +6.1575995e+02 </wgt>
<wgt id='7'> +5.2277730e+02 </wgt>
<wgt id='8'> +4.6073626e+02 </wgt>
<wgt id='9'> +6.1575995e+02 </wgt>
<wgt id='10'> +4.2254130e+02 </wgt>
<wgt id='11'> +5.6199054e+02 </wgt>
<wgt id='12'> +4.7762481e+02 </wgt>
<wgt id='13'> +4.2133692e+02 </wgt>
<wgt id='14'> +5.6199054e+02 </wgt>
<wgt id='15'> +3.8669552e+02 </wgt>
<wgt id='16'> +5.4644207e+02 </wgt>
<wgt id='17'> +4.7775777e+02 </wgt>
<wgt id='18'> +4.2605727e+02 </wgt>
<wgt id='19'> +5.4644207e+02 </wgt>
<wgt id='20'> +3.9223493e+02 </wgt>
<wgt id='21'> +4.3700187e+02 </wgt>
<wgt id='22'> +3.8885309e+02 </wgt>
<wgt id='23'> +5.0481800e+02 </wgt>
<wgt id='24'> +3.5821463e+02 </wgt>
<wgt id='25'> +4.6073627e+02 </wgt>
<wgt id='26'> +3.9925784e+02 </wgt>
<wgt id='27'> +3.5560075e+02 </wgt>
<wgt id='28'> +4.6073626e+02 </wgt>
<wgt id='29'> +3.2782592e+02 </wgt>
<wgt id='30'> +4.6118724e+02 </wgt>
<wgt id='31'> +4.0620944e+02 </wgt>
<wgt id='32'> +3.6435144e+02 </wgt>
<wgt id='33'> +4.6118724e+02 </wgt>
<wgt id='34'> +3.3673976e+02 </wgt>
<wgt id='35'> +4.2605727e+02 </wgt>
<wgt id='36'> +3.7155708e+02 </wgt>
<wgt id='37'> +3.3253553e+02 </wgt>
<wgt id='38'> +4.2605727e+02 </wgt>
<wgt id='39'> +3.0753281e+02 </wgt>
<wgt id='40'> +3.8885309e+02 </wgt>
<wgt id='41'> +3.3946555e+02 </wgt>
<wgt id='42'> +3.0409913e+02 </wgt>
<wgt id='43'> +3.8885309e+02 </wgt>
<wgt id='44'> +2.8144363e+02 </wgt>
<wgt id='45'> +5.0481800e+02 </wgt>
<wgt id='46'> +5.1899140e+02 </wgt>
<wgt id='47'> +5.1956481e+02 </wgt>
<wgt id='48'> +5.0694679e+02 </wgt>
<wgt id='49'> +4.8471679e+02 </wgt>
<wgt id='50'> +6.0320604e+02 </wgt>
<wgt id='51'> +4.8544484e+02 </wgt>
<wgt id='52'> +4.9509691e+02 </wgt>
<wgt id='53'> +4.9855837e+02 </wgt>
<wgt id='54'> +5.2281709e+02 </wgt>
<wgt id='55'> +5.0916766e+02 </wgt>
<wgt id='56'> +4.6560565e+02 </wgt>
<wgt id='57'> +5.2020179e+02 </wgt>
<wgt id='58'> +4.7901934e+02 </wgt>
<wgt id='59'> +5.3696740e+02 </wgt>
<wgt id='60'> +5.0646546e+02 </wgt>
<wgt id='61'> +4.4215290e+02 </wgt>
<wgt id='62'> +4.8498511e+02 </wgt>
<wgt id='63'> +5.1559792e+02 </wgt>
<wgt id='64'> +4.9885685e+02 </wgt>
<wgt id='65'> +5.2664601e+02 </wgt>
<wgt id='66'> +5.0085314e+02 </wgt>
<wgt id='67'> +5.0707686e+02 </wgt>
<wgt id='68'> +5.7510753e+02 </wgt>
<wgt id='69'> +5.1857256e+02 </wgt>
<wgt id='70'> +5.1033019e+02 </wgt>
<wgt id='71'> +4.9676528e+02 </wgt>
<wgt id='72'> +4.7853545e+02 </wgt>
<wgt id='73'> +4.7519077e+02 </wgt>
<wgt id='74'> +5.4923722e+02 </wgt>
<wgt id='75'> +5.2480701e+02 </wgt>
<wgt id='76'> +5.0735400e+02 </wgt>
<wgt id='77'> +4.9117063e+02 </wgt>
<wgt id='78'> +4.6340667e+02 </wgt>
<wgt id='79'> +5.1309066e+02 </wgt>
<wgt id='80'> +4.7562467e+02 </wgt>
<wgt id='81'> +5.0277429e+02 </wgt>
<wgt id='82'> +4.8903329e+02 </wgt>
<wgt id='83'> +5.0554383e+02 </wgt>
<wgt id='84'> +5.2537920e+02 </wgt>
<wgt id='85'> +4.9253274e+02 </wgt>
<wgt id='86'> +5.1464445e+02 </wgt>
<wgt id='87'> +5.0598894e+02 </wgt>
<wgt id='88'> +5.0051424e+02 </wgt>
<wgt id='89'> +4.8530074e+02 </wgt>
<wgt id='90'> +5.0210038e+02 </wgt>
<wgt id='91'> +4.8917925e+02 </wgt>
<wgt id='92'> +4.6390152e+02 </wgt>
<wgt id='93'> +5.0521270e+02 </wgt>
<wgt id='94'> +4.7899402e+02 </wgt>
<wgt id='95'> +5.1355052e+02 </wgt>
<wgt id='96'> +5.3499697e+02 </wgt>
<wgt id='97'> +4.8367790e+02 </wgt>
<wgt id='98'> +5.1020595e+02 </wgt>
<wgt id='99'> +4.5814510e+02 </wgt>
<wgt id='100'> +4.3689195e+02 </wgt>
<wgt id='101'> +5.7269589e+02 </wgt>
<wgt id='102'> +5.4034729e+02 </wgt>
<wgt id='103'> +5.2328581e+02 </wgt>
<wgt id='104'> +5.2058247e+02 </wgt>
<wgt id='105'> +5.1982315e+02 </wgt>
<wgt id='106'> +4.6921310e+02 </wgt>
<wgt id='107'> +4.7881074e+02 </wgt>
<wgt id='108'> +4.5343294e+02 </wgt>
<wgt id='109'> +4.8459550e+02 </wgt>
<wgt id='110'> +4.8790429e+02 </wgt>
<wgt id='111'> +4.9217968e+02 </wgt>
<wgt id='112'> +4.9492868e+02 </wgt>
<wgt id='113'> +4.8677254e+02 </wgt>
<wgt id='114'> +5.0478209e+02 </wgt>
<wgt id='115'> +4.7033959e+02 </wgt>
<wgt id='116'> +5.3571864e+02 </wgt>
<wgt id='117'> +4.9524897e+02 </wgt>
<wgt id='118'> +5.2926821e+02 </wgt>
<wgt id='119'> +5.1367498e+02 </wgt>
<wgt id='120'> +4.9956815e+02 </wgt>
<wgt id='121'> +4.9935771e+02 </wgt>
<wgt id='122'> +4.9829115e+02 </wgt>
<wgt id='123'> +5.0028316e+02 </wgt>
<wgt id='124'> +5.6676751e+02 </wgt>
<wgt id='125'> +5.8914858e+02 </wgt>
<wgt id='126'> +5.1084888e+02 </wgt>
<wgt id='127'> +5.0637346e+02 </wgt>
<wgt id='128'> +4.6597545e+02 </wgt>
<wgt id='129'> +5.4893472e+02 </wgt>
<wgt id='130'> +4.9168871e+02 </wgt>
<wgt id='131'> +5.0324925e+02 </wgt>
<wgt id='132'> +5.4352988e+02 </wgt>
<wgt id='133'> +5.3232716e+02 </wgt>
<wgt id='134'> +5.0596218e+02 </wgt>
<wgt id='135'> +5.0080729e+02 </wgt>
<wgt id='136'> +5.5295505e+02 </wgt>
<wgt id='137'> +4.9768967e+02 </wgt>
<wgt id='138'> +4.9048970e+02 </wgt>
<wgt id='139'> +5.2066527e+02 </wgt>
<wgt id='140'> +5.0740622e+02 </wgt>
<wgt id='141'> +5.3271647e+02 </wgt>
<wgt id='142'> +4.3254460e+02 </wgt>
<wgt id='143'> +5.1833934e+02 </wgt>
<wgt id='144'> +4.8063755e+02 </wgt>
<wgt id='145'> +4.8745486e+02 </wgt>
</rwgt>
</event>
<event>
 4      1 +5.0481800e+02 2.60578600e+02 7.54677100e-03 1.10679600e-01
       21 -1    0    0  503  502 +0.0000000000e+00 +0.0000000000e+00 +9.5582553538e+01 9.5582553538e+01 0.0000000000e+00 0.0000e+00 -1.0000e+00
       21 -1    0    0  501  503 -0.0000000000e+00 -0.0000000000e+00 -8.7771223091e+02 8.7771223091e+02 0.0000000000e+00 0.0000e+00 1.0000e+00
        6  1    1    2  501    0 +1.9478130343e+02 +5.6954832318e+00 -6.0354139270e+02 6.5739136548e+02 1.7300000000e+02 0.0000e+00 -1.0000e+00
       -6  1    1    2    0  502 -1.9478130343e+02 -5.6954832318e+00 -1.7858828467e+02 3.1590341897e+02 1.7300000000e+02 0.0000e+00 1.0000e+00
<mgrwt>
<rscale>  2 0.26057858E+03</rscale>
<asrwt>0</asrwt>
<pdfrwt beam="1">  1       21 0.14705008E-01 0.26057858E+03</pdfrwt>
<pdfrwt beam="2">  1       21 0.13503265E+00 0.26057858E+03</pdfrwt>
<totfact> 0.15321859E+04</totfact>
</mgrwt>
<rwgt>
<wgt id='1'> +6.6553006e+02 </wgt>
<wgt id='2'> +5.4167665e+02 </wgt>
<wgt id='3'> +5.0481800e+02 </wgt>
<wgt id='4'> +6.6553006e+02 </wgt>
<wgt id='5'> +4.8470676e+02 </wgt>
<wgt id='6'> +6.0957100e+02 </wgt>
<wgt id='7'> +4.9287346e+02 </wgt>
<wgt id='8'> +4.5961683e+02 </wgt>
<wgt id='9'> +6.0957101e+02 </wgt>
<wgt id='10'> +4.4144997e+02 </wgt>
<wgt id='11'> +5.5499030e+02 </wgt>
<wgt id='12'> +4.4950796e+02 </wgt>
<wgt id='13'> +4.1945856e+02 </wgt>
<wgt id='14'> +5.5499030e+02 </wgt>
<wgt id='15'> +4.0304152e+02 </wgt>
<wgt id='16'> +5.5116066e+02 </wgt>
<wgt id='17'> +4.5725265e+02 </wgt>
<wgt id='18'> +4.2766388e+02 </wgt>
<wgt id='19'> +5.5116066e+02 </wgt>
<wgt id='20'> +4.1148125e+02 </wgt>
<wgt id='21'> +4.1605577e+02 </wgt>
<wgt id='22'> +3.8937106e+02 </wgt>
<wgt id='23'> +5.0481800e+02 </wgt>
<wgt id='24'> +3.7475934e+02 </wgt>
<wgt id='25'> +4.5961683e+02 </wgt>
<wgt id='26'> +3.7944908e+02 </wgt>
<wgt id='27'> +3.5535040e+02 </wgt>
<wgt id='28'> +4.5961683e+02 </wgt>
<wgt id='29'> +3.4215333e+02 </wgt>
<wgt id='30'> +4.6692374e+02 </wgt>
<wgt id='31'> +3.9109877e+02 </wgt>
<wgt id='32'> +3.6693637e+02 </wgt>
<wgt id='33'> +4.6692374e+02 </wgt>
<wgt id='34'> +3.5367559e+02 </wgt>
<wgt id='35'> +4.2766388e+02 </wgt>
<wgt id='36'> +3.5586213e+02 </wgt>
<wgt id='37'> +3.3408106e+02 </wgt>
<wgt id='38'> +4.2766388e+02 </wgt>
<wgt id='39'> +3.2211245e+02 </wgt>
<wgt id='40'> +3.8937106e+02 </wgt>
<wgt id='41'> +3.2455158e+02 </wgt>
<wgt id='42'> +3.0489127e+02 </wgt>
<wgt id='43'> +3.8937106e+02 </wgt>
<wgt id='44'> +2.9408699e+02 </wgt>
<wgt id='45'> +5.0481800e+02 </wgt>
<wgt id='46'> +5.1944336e+02 </wgt>
<wgt id='47'> +5.2109518e+02 </wgt>
<wgt id='48'> +5.0776560e+02 </wgt>
<wgt id='49'> +4.8514946e+02 </wgt>
<wgt id='50'> +6.0634046e+02 </wgt>
<wgt id='51'> +4.8590480e+02 </wgt>
<wgt id='52'> +4.9494722e+02 </wgt>
<wgt id='53'> +4.9890825e+02 </wgt>
<wgt id='54'> +5.2224502e+02 </wgt>
<wgt id='55'> +5.0639668e+02 </wgt>
<wgt id='56'> +4.6473579e+02 </wgt>
<wgt id='57'> +5.1873560e+02 </wgt>
<wgt id='58'> +4.7855484e+02 </wgt>
<wgt id='59'> +5.3586154e+02 </wgt>
<wgt id='60'> +5.0549541e+02 </wgt>
<wgt id='61'> +4.4139637e+02 </wgt>
<wgt id='62'> +4.8560342e+02 </wgt>
<wgt id='63'> +5.1513439e+02 </wgt>
<wgt id='64'> +4.9782968e+02 </wgt>
<wgt id='65'> +5.2995794e+02 </wgt>
<wgt id='66'> +5.0116826e+02 </wgt>
<wgt id='67'> +5.0718142e+02 </wgt>
<wgt id='68'> +5.7530437e+02 </wgt>
<wgt id='69'> +5.2003721e+02 </wgt>
<wgt id='70'> +5.1002365e+02 </wgt>
<wgt id='71'> +4.9729555e+02 </wgt>
<wgt id='72'> +4.7625876e+02 </wgt>
<wgt id='73'> +4.7514515e+02 </wgt>
<wgt id='74'> +5.4949047e+02 </wgt>
<wgt id='75'> +5.2528229e+02 </wgt>
<wgt id='76'> +5.0627008e+02 </wgt>
<wgt id='77'> +4.9120016e+02 </wgt>
<wgt id='78'> +4.6399950e+02 </wgt>
<wgt id='79'> +5.1260140e+02 </wgt>
<wgt id='80'> +4.7605599e+02 </wgt>
<wgt id='81'> +5.0219858e+02 </wgt>
<wgt id='82'> +4.8977879e+02 </wgt>
<wgt id='83'> +5.0709556e+02 </wgt>
<wgt id='84'> +5.2750186e+02 </wgt>
<wgt id='85'> +4.9385816e+02 </wgt>
<wgt id='86'> +5.1519452e+02 </wgt>
<wgt id='87'> +5.0606506e+02 </wgt>
<wgt id='88'> +5.0225306e+02 </wgt>
<wgt id='89'> +4.8611990e+02 </wgt>
<wgt id='90'> +5.0218324e+02 </wgt>
<wgt id='91'> +4.9062914e+02 </wgt>
<wgt id='92'> +4.6162811e+02 </wgt>
<wgt id='93'> +5.0546888e+02 </wgt>
<wgt id='94'> +4.7890503e+02 </wgt>
<wgt id='95'> +5.1152870e+02 </wgt>
<wgt id='96'> +5.3709441e+02 </wgt>
<wgt id='97'> +4.8413151e+02 </wgt>
<wgt id='98'> +5.0992234e+02 </wgt>
<wgt id='99'> +4.5854672e+02 </wgt>
<wgt id='100'> +4.3729180e+02 </wgt>
<wgt id='101'> +5.7310845e+02 </wgt>
<wgt id='102'> +5.4045130e+02 </wgt>
<wgt id='103'> +5.2450404e+02 </wgt>
<wgt id='104'> +5.2132903e+02 </wgt>
<wgt id='105'> +5.1893214e+02 </wgt>
<wgt id='106'> +4.6727026e+02 </wgt>
<wgt id='107'> +4.7790905e+02 </wgt>
<wgt id='108'> +4.5203513e+02 </wgt>
<wgt id='109'> +4.8303759e+02 </wgt>
<wgt id='110'> +4.8752995e+02 </wgt>
<wgt id='111'> +4.9156977e+02 </wgt>
<wgt id='112'> +4.9354243e+02 </wgt>
<wgt id='113'> +4.8532018e+02 </wgt>
<wgt id='114'> +5.0294549e+02 </wgt>
<wgt id='115'> +4.7129826e+02 </wgt>
<wgt id='116'> +5.3651983e+02 </wgt>
<wgt id='117'> +4.9574417e+02 </wgt>
<wgt id='118'> +5.3007422e+02 </wgt>
<wgt id='119'> +5.1177423e+02 </wgt>
<wgt id='120'> +4.9933176e+02 </wgt>
<wgt id='121'> +4.9784181e+02 </wgt>
<wgt id='122'> +4.9793758e+02 </wgt>
<wgt id='123'> +5.0139748e+02 </wgt>
<wgt id='124'> +5.6732641e+02 </wgt>
<wgt id='125'> +5.8908604e+02 </wgt>
<wgt id='126'> +5.1212737e+02 </wgt>
<wgt id='127'> +5.0715818e+02 </wgt>
<wgt id='128'> +4.6609039e+02 </wgt>
<wgt id='129'> +5.4977006e+02 </wgt>
<wgt id='130'> +4.9384110e+02 </wgt>
<wgt id='131'> +5.0427764e+02 </wgt>
<wgt id='132'> +5.4192371e+02 </wgt>
<wgt id='133'> +5.3223189e+02 </wgt>
<wgt id='134'> +5.0494190e+02 </wgt>
<wgt id='135'> +5.0119737e+02 </wgt>
<wgt id='136'> +5.5049491e+02 </wgt>
<wgt id='137'> +4.9824462e+02 </wgt>
<wgt id='138'> +4.9196377e+02 </wgt>
<wgt id='139'> +5.2068645e+02 </wgt>
<wgt id='140'> +5.0778324e+02 </wgt>
<wgt id='141'> +5.3269108e+02 </wgt>
<wgt id='142'> +4.3395571e+02 </wgt>
<wgt id='143'> +5.1769161e+02 </wgt>
<wgt id='144'> +4.8024514e+02 </wgt>
<wgt id='145'> +4.8837246e+02 </wgt>
</rwgt>
</event>
<event>
 4      1 +5.0481800e+02 2.95354900e+02 7.54677100e-03 1.08758600e-01
       21 -1    0    0  501  502 +0.0000000000e+00 +0.0000000000e+00 +8.1489881952e+02 8.1489881952e+02 0.0000000000e+00 0.0000e+00 1.0000e+00
       21 -1    0    0  502  503 -0.0000000000e+00 -0.0000000000e+00 -1.4902590443e+02 1.4902590443e+02 0.0000000000e+00 0.0000e+00 1.0000e+00
        6  1    1    2  501    0 +2.3161537329e+02 -6.0496450955e+01 +5.8872725670e+02 6.5866097843e+02 1.7300000000e+02 0.0000e+00 1.0000e+00
       -6  1    1    2    0  503 -2.3161537329e+02 +6.0496450955e+01 +7.7145658384e+01 3.0526374552e+02 1.7300000000e+02 0.0000e+00 1.0000e+00
<mgrwt>
<rscale>  2 0.29535487E+03</rscale>
<asrwt>0</asrwt>
<pdfrwt beam="1">  1       21 0.12536905E+00 0.29535487E+03</pdfrwt>
<pdfrwt beam="2">  1       21 0.22927063E-01 0.29535487E+03</pdfrwt>
<totfact> 0.79322984E+03</totfact>
</mgrwt>
<rwgt>
<wgt id='1'> +6.6941463e+02 </wgt>
<wgt id='2'> +5.2359395e+02 </wgt>
<wgt id='3'> +5.0481800e+02 </wgt>
<wgt id='4'> +6.6941462e+02 </wgt>
<wgt id='5'> +4.7319552e+02 </wgt>
<wgt id='6'> +6.0567234e+02 </wgt>
<wgt id='7'> +4.7294423e+02 </wgt>
<wgt id='8'> +4.5617546e+02 </wgt>
<wgt id='9'> +6.0567234e+02 </wgt>
<wgt id='10'> +4.2792855e+02 </wgt>
<wgt id='11'> +5.4731182e+02 </wgt>
<wgt id='12'> +4.2860438e+02 </wgt>
<wgt id='13'> +4.1359775e+02 </wgt>
<wgt id='14'> +5.4731182e+02 </wgt>
<wgt id='15'> +3.8830951e+02 </wgt>
<wgt id='16'> +5.5794615e+02 </wgt>
<wgt id='17'> +4.4385974e+02 </wgt>
<wgt id='18'> +4.2871551e+02 </wgt>
<wgt id='19'> +5.5794615e+02 </wgt>
<wgt id='20'> +4.0311856e+02 </wgt>
<wgt id='21'> +4.0092309e+02 </wgt>
<wgt id='22'> +3.8740595e+02 </wgt>
<wgt id='23'> +5.0481800e+02 </wgt>
<wgt id='24'> +3.6455531e+02 </wgt>
<wgt id='25'> +4.5617546e+02 </wgt>
<wgt id='26'> +3.6333542e+02 </wgt>
<wgt id='27'> +3.5124693e+02 </wgt>
<wgt id='28'> +4.5617546e+02 </wgt>
<wgt id='29'> +3.3080358e+02 </wgt>
<wgt id='30'> +4.7383447e+02 </wgt>
<wgt id='31'> +3.8104333e+02 </wgt>
<wgt id='32'> +3.6860810e+02 </wgt>
<wgt id='33'> +4.7383447e+02 </wgt>
<wgt id='34'> +3.4752807e+02 </wgt>
<wgt id='35'> +4.2871551e+02 </wgt>
<wgt id='36'> +3.4418321e+02 </wgt>
<wgt id='37'> +3.3309029e+02 </wgt>
<wgt id='38'> +4.2871551e+02 </wgt>
<wgt id='39'> +3.1428274e+02 </wgt>
<wgt id='40'> +3.8740595e+02 </wgt>
<wgt id='41'> +3.1191507e+02 </wgt>
<wgt id='42'> +3.0200089e+02 </wgt>
<wgt id='43'> +3.8740595e+02 </wgt>
<wgt id='44'> +2.8518540e+02 </wgt>
<wgt id='45'> +5.0481800e+02 </wgt>
<wgt id='46'> +5.2138007e+02 </wgt>
<wgt id='47'> +5.2442533e+02 </wgt>
<wgt id='48'> +5.1030910e+02 </wgt>
<wgt id='49'> +4.8778054e+02 </wgt>
<wgt id='50'> +6.1780172e+02 </wgt>
<wgt id='51'> +4.8741595e+02 </wgt>
<wgt id='52'> +4.9696199e+02 </wgt>
<wgt id='53'> +4.9793920e+02 </wgt>
<wgt id='54'> +5.2011779e+02 </wgt>
<wgt id='55'> +4.9506536e+02 </wgt>
<wgt id='56'> +4.6000595e+02 </wgt>
<wgt id='57'> +5.1399365e+02 </wgt>
<wgt id='58'> +4.7905819e+02 </wgt>
<wgt id='59'> +5.3381495e+02 </wgt>
<wgt id='60'> +5.0506553e+02 </wgt>
<wgt id='61'> +4.3632877e+02 </wgt>
<wgt id='62'> +4.8857031e+02 </wgt>
<wgt id='63'> +5.1309347e+02 </wgt>
<wgt id='64'> +4.9447704e+02 </wgt>
<wgt id='65'> +5.4271911e+02 </wgt>
<wgt id='66'> +5.0063849e+02 </wgt>
<wgt id='67'> +5.0740745e+02 </wgt>
<wgt id='68'> +5.7475757e+02 </wgt>
<wgt id='69'> +5.2132689e+02 </wgt>
<wgt id='70'> +5.0630002e+02 </wgt>
<wgt id='71'> +5.0026847e+02 </wgt>
<wgt id='72'> +4.7091294e+02 </wgt>
<wgt id='73'> +4.7643951e+02 </wgt>
<wgt id='74'> +5.4930791e+02 </wgt>
<wgt id='75'> +5.2491550e+02 </wgt>
<wgt id='76'> +5.0229081e+02 </wgt>
<wgt id='77'> +4.9275781e+02 </wgt>
<wgt id='78'> +4.6631985e+02 </wgt>
<wgt id='79'> +5.0991499e+02 </wgt>
<wgt id='80'> +4.7854907e+02 </wgt>
<wgt id='81'> +4.9886830e+02 </wgt>
<wgt id='82'> +4.9109827e+02 </wgt>
<wgt id='83'> +5.1127478e+02 </wgt>
<wgt id='84'> +5.3552682e+02 </wgt>
<wgt id='85'> +5.0033495e+02 </wgt>
<wgt id='86'> +5.1571474e+02 </wgt>
<wgt id='87'> +5.0741119e+02 </wgt>
<wgt id='88'> +5.0617052e+02 </wgt>
<wgt id='89'> +4.9334006e+02 </wgt>
<wgt id='90'> +5.0535190e+02 </wgt>
<wgt id='91'> +4.9768489e+02 </wgt>
<wgt id='92'> +4.5342678e+02 </wgt>
<wgt id='93'> +5.0617684e+02 </wgt>
<wgt id='94'> +4.7934320e+02 </wgt>
<wgt id='95'> +5.0501045e+02 </wgt>
<wgt id='96'> +5.4439544e+02 </wgt>
<wgt id='97'> +4.8656166e+02 </wgt>
<wgt id='98'> +5.0610869e+02 </wgt>
<wgt id='99'> +4.6163354e+02 </wgt>
<wgt id='100'> +4.4058673e+02 </wgt>
<wgt id='101'> +5.7554007e+02 </wgt>
<wgt id='102'> +5.3988770e+02 </wgt>
<wgt id='103'> +5.3243034e+02 </wgt>
<wgt id='104'> +5.2129950e+02 </wgt>
<wgt id='105'> +5.1705555e+02 </wgt>
<wgt id='106'> +4.5907360e+02 </wgt>
<wgt id='107'> +4.7377533e+02 </wgt>
<wgt id='108'> +4.4473527e+02 </wgt>
<wgt id='109'> +4.7699318e+02 </wgt>
<wgt id='110'> +4.8881969e+02 </wgt>
<wgt id='111'> +4.8926693e+02 </wgt>
<wgt id='112'> +4.8692035e+02 </wgt>
<wgt id='113'> +4.7737669e+02 </wgt>
<wgt id='114'> +4.9626715e+02 </wgt>
<wgt id='115'> +4.7122614e+02 </wgt>
<wgt id='116'> +5.3813649e+02 </wgt>
<wgt id='117'> +4.9618089e+02 </wgt>
<wgt id='118'> +5.3421528e+02 </wgt>
<wgt id='119'> +5.0435329e+02 </wgt>
<wgt id='120'> +4.9693772e+02 </wgt>
<wgt id='121'> +4.9425928e+02 </wgt>
<wgt id='122'> +4.9721559e+02 </wgt>
<wgt id='123'> +5.0535310e+02 </wgt>
<wgt id='124'> +5.7086884e+02 </wgt>
<wgt id='125'> +5.8817831e+02 </wgt>
<wgt id='126'> +5.1724438e+02 </wgt>
<wgt id='127'> +5.1167208e+02 </wgt>
<wgt id='128'> +4.6251889e+02 </wgt>
<wgt id='129'> +5.5633333e+02 </wgt>
<wgt id='130'> +4.9854806e+02 </wgt>
<wgt id='131'> +5.1034581e+02 </wgt>
<wgt id='132'> +5.3915068e+02 </wgt>
<wgt id='133'> +5.3186009e+02 </wgt>
<wgt id='134'> +5.0034003e+02 </wgt>
<wgt id='135'> +5.0395587e+02 </wgt>
<wgt id='136'> +5.4272425e+02 </wgt>
<wgt id='137'> +4.9630681e+02 </wgt>
<wgt id='138'> +4.9246287e+02 </wgt>
<wgt id='139'> +5.2197289e+02 </wgt>
<wgt id='140'> +5.1006770e+02 </wgt>
<wgt id='141'> +5.2956493e+02 </wgt>
<wgt id='142'> +4.4151766e+02 </wgt>
<wgt id='143'> +5.1697492e+02 </wgt>
<wgt id='144'> +4.8060139e+02 </wgt>
<wgt id='145'> +4.9167446e+02 </wgt>
</rwgt>
</event>
<event>
 4      1 +5.0481800e+02 2.11470700e+02 7.54677100e-03 1.14040700e-01
       21 -1    0    0  503  502 +0.0000000000e+00 +0.0000000000e+00 +2.0913956739e+02 2.0913956739e+02 0.0000000000e+00 0.0000e+00 -1.0000e+00
       21 -1    0    0  501  503 -0.0000000000e+00 -0.0000000000e+00 -7.9300668700e+02 7.9300668700e+02 0.0000000000e+00 0.0000e+00 -1.0000e+00
        6  1    1    2  501    0 +9.2723306303e+01 +7.8697287089e+01 -7.2015559445e+02 7.5056242561e+02 1.7300000000e+02 0.0000e+00 -1.0000e+00
       -6  1    1    2    0  502 -9.2723306303e+01 -7.8697287089e+01 +1.3628847485e+02 2.5158382878e+02 1.7300000000e+02 0.0000e+00 -1.0000e+00
<mgrwt>
<rscale>  2 0.21147074E+03</rscale>
<asrwt>0</asrwt>
<pdfrwt beam="1">  1       21 0.32175318E-01 0.21147074E+03</pdfrwt>
<pdfrwt beam="2">  1       21 0.12200103E+00 0.21147074E+03</pdfrwt>
<totfact> 0.46388886E+03</totfact>
</mgrwt>
<rwgt>
<wgt id='1'> +6.8254498e+02 </wgt>
<wgt id='2'> +5.9108317e+02 </wgt>
<wgt id='3'> +5.0481800e+02 </wgt>
<wgt id='4'> +6.8254498e+02 </wgt>
<wgt id='5'> +3.8660091e+02 </wgt>
<wgt id='6'> +6.1637551e+02 </wgt>
<wgt id='7'> +5.2991254e+02 </wgt>
<wgt id='8'> +4.5144227e+02 </wgt>
<wgt id='9'> +6.1637551e+02 </wgt>
<wgt id='10'> +3.4711920e+02 </wgt>
<wgt id='11'> +5.5120452e+02 </wgt>
<wgt id='12'> +4.7485157e+02 </wgt>
<wgt id='13'> +4.0543177e+02 </wgt>
<wgt id='14'> +5.5120452e+02 </wgt>
<wgt id='15'> +3.1298939e+02 </wgt>
<wgt id='16'> +5.5901149e+02 </wgt>
<wgt id='17'> +4.9241680e+02 </wgt>
<wgt id='18'> +4.2591421e+02 </wgt>
<wgt id='19'> +5.5901149e+02 </wgt>
<wgt id='20'> +3.3028306e+02 </wgt>
<wgt id='21'> +4.4145706e+02 </wgt>
<wgt id='22'> +3.8088119e+02 </wgt>
<wgt id='23'> +5.0481800e+02 </wgt>
<wgt id='24'> +2.9655283e+02 </wgt>
<wgt id='25'> +4.5144227e+02 </wgt>
<wgt id='26'> +3.9558712e+02 </wgt>
<wgt id='27'> +3.4206219e+02 </wgt>
<wgt id='28'> +4.5144227e+02 </wgt>
<wgt id='29'> +2.6739485e+02 </wgt>
<wgt id='30'> +4.7163718e+02 </wgt>
<wgt id='31'> +4.1810546e+02 </wgt>
<wgt id='32'> +3.6411574e+02 </wgt>
<wgt id='33'> +4.7163717e+02 </wgt>
<wgt id='34'> +2.8543079e+02 </wgt>
<wgt id='35'> +4.2591421e+02 </wgt>
<wgt id='36'> +3.7483612e+02 </wgt>
<wgt id='37'> +3.2561683e+02 </wgt>
<wgt id='38'> +4.2591421e+02 </wgt>
<wgt id='39'> +2.5628110e+02 </wgt>
<wgt id='40'> +3.8088119e+02 </wgt>
<wgt id='41'> +3.3588849e+02 </wgt>
<wgt id='42'> +2.9243032e+02 </wgt>
<wgt id='43'> +3.8088119e+02 </wgt>
<wgt id='44'> +2.3108277e+02 </wgt>
<wgt id='45'> +5.0481800e+02 </wgt>
<wgt id='46'> +5.2381505e+02 </wgt>
<wgt id='47'> +5.2668080e+02 </wgt>
<wgt id='48'> +5.1241159e+02 </wgt>
<wgt id='49'> +4.8987092e+02 </wgt>
<wgt id='50'> +6.3158135e+02 </wgt>
<wgt id='51'> +4.8798311e+02 </wgt>
<wgt id='52'> +4.9981857e+02 </wgt>
<wgt id='53'> +4.9574620e+02 </wgt>
<wgt id='54'> +5.1884851e+02 </wgt>
<wgt id='55'> +4.8506143e+02 </wgt>
<wgt id='56'> +4.5398334e+02 </wgt>
<wgt id='57'> +5.1076289e+02 </wgt>
<wgt id='58'> +4.7951915e+02 </wgt>
<wgt id='59'> +5.3425630e+02 </wgt>
<wgt id='60'> +5.0635244e+02 </wgt>
<wgt id='61'> +4.3057893e+02 </wgt>
<wgt id='62'> +4.9078330e+02 </wgt>
<wgt id='63'> +5.1163655e+02 </wgt>
<wgt id='64'> +4.9146567e+02 </wgt>
<wgt id='65'> +5.5421216e+02 </wgt>
<wgt id='66'> +4.9909495e+02 </wgt>
<wgt id='67'> +5.0753409e+02 </wgt>
<wgt id='68'> +5.7618183e+02 </wgt>
<wgt id='69'> +5.2121148e+02 </wgt>
<wgt id='70'> +5.0209336e+02 </wgt>
<wgt id='71'> +5.0273616e+02 </wgt>
<wgt id='72'> +4.6649033e+02 </wgt>
<wgt id='73'> +4.7727848e+02 </wgt>
<wgt id='74'> +5.5042639e+02 </wgt>
<wgt id='75'> +5.2442576e+02 </wgt>
<wgt id='76'> +4.9888660e+02 </wgt>
<wgt id='77'> +4.9446906e+02 </wgt>
<wgt id='78'> +4.6682837e+02 </wgt>
<wgt id='79'> +5.0755387e+02 </wgt>
<wgt id='80'> +4.7989190e+02 </wgt>
<wgt id='81'> +4.9534097e+02 </wgt>
<wgt id='82'> +4.9124221e+02 </wgt>
<wgt id='83'> +5.1429771e+02 </wgt>
<wgt id='84'> +5.4303787e+02 </wgt>
<wgt id='85'> +5.0633154e+02 </wgt>
<wgt id='86'> +5.1592395e+02 </wgt>
<wgt id='87'> +5.0920891e+02 </wgt>
<wgt id='88'> +5.0819109e+02 </wgt>
<wgt id='89'> +5.0096652e+02 </wgt>
<wgt id='90'> +5.0920314e+02 </wgt>
<wgt id='91'> +5.0350105e+02 </wgt>
<wgt id='92'> +4.4501206e+02 </wgt>
<wgt id='93'> +5.0683924e+02 </wgt>
<wgt id='94'> +4.7918415e+02 </wgt>
<wgt id='95'> +5.0005310e+02 </wgt>
<wgt id='96'> +5.5194322e+02 </wgt>
<wgt id='97'> +4.8811884e+02 </wgt>
<wgt id='98'> +5.0170370e+02 </wgt>
<wgt id='99'> +4.6358128e+02 </wgt>
<wgt id='100'> +4.4165044e+02 </wgt>
<wgt id='101'> +5.8068295e+02 </wgt>
<wgt id='102'> +5.4046202e+02 </wgt>
<wgt id='103'> +5.4173266e+02 </wgt>
<wgt id='104'> +5.2043278e+02 </wgt>
<wgt id='105'> +5.1633229e+02 </wgt>
<wgt id='106'> +4.5028647e+02 </wgt>
<wgt id='107'> +4.6888040e+02 </wgt>
<wgt id='108'> +4.3564400e+02 </wgt>
<wgt id='109'> +4.7092480e+02 </wgt>
<wgt id='110'> +4.9059857e+02 </wgt>
<wgt id='111'> +4.8668952e+02 </wgt>
<wgt id='112'> +4.8030562e+02 </wgt>
<wgt id='113'> +4.6885106e+02 </wgt>
<wgt id='114'> +4.9033765e+02 </wgt>
<wgt id='115'> +4.6774101e+02 </wgt>
<wgt id='116'> +5.4023025e+02 </wgt>
<wgt id='117'> +4.9551167e+02 </wgt>
<wgt id='118'> +5.3940500e+02 </wgt>
<wgt id='119'> +4.9822866e+02 </wgt>
<wgt id='120'> +4.9355757e+02 </wgt>
<wgt id='121'> +4.9188980e+02 </wgt>
<wgt id='122'> +4.9656184e+02 </wgt>
<wgt id='123'> +5.0844371e+02 </wgt>
<wgt id='124'> +5.7708376e+02 </wgt>
<wgt id='125'> +5.9032441e+02 </wgt>
<wgt id='126'> +5.2192639e+02 </wgt>
<wgt id='127'> +5.1648653e+02 </wgt>
<wgt id='128'> +4.5632661e+02 </wgt>
<wgt id='129'> +5.6507868e+02 </wgt>
<wgt id='130'> +5.0063803e+02 </wgt>
<wgt id='131'> +5.1646752e+02 </wgt>
<wgt id='132'> +5.3972734e+02 </wgt>
<wgt id='133'> +5.3272293e+02 </wgt>
<wgt id='134'> +4.9599364e+02 </wgt>
<wgt id='135'> +5.0688969e+02 </wgt>
<wgt id='136'> +5.3846053e+02 </wgt>
<wgt id='137'> +4.9259388e+02 </wgt>
<wgt id='138'> +4.9018898e+02 </wgt>
<wgt id='139'> +5.2440605e+02 </wgt>
<wgt id='140'> +5.1245973e+02 </wgt>
<wgt id='141'> +5.2652080e+02 </wgt>
<wgt id='142'> +4.4607832e+02 </wgt>
<wgt id='143'> +5.1754477e+02 </wgt>
<wgt id='144'> +4.8080235e+02 </wgt>
<wgt id='145'> +4.9375912e+02 </wgt>
</rwgt>
</event>
<event>
 4      1 +5.0481800e+02 2.18756600e+02 7.54677100e-03 1.13481300e-01
       21 -1    0    0  501  502 +0.0000000000e+00 +0.0000000000e+00 +3.9299059713e+02 3.9299059713e+02 0.0000000000e+00 0.0000e+00 1.0000e+00
       21 -1    0    0  502  503 -0.0000000000e+00 -0.0000000000e+00 -1.4725212431e+02 1.4725212431e+02 0.0000000000e+00 0.0000e+00 1.0000e+00
        6  1    1    2  501    0 +1.2558165954e+02 +4.6418676644e+01 +2.3523819485e+02 3.2123426820e+02 1.7300000000e+02 0.0000e+00 1.0000e+00
       -6  1    1    2    0  503 -1.2558165954e+02 -4.6418676644e+01 +1.0500277968e+01 2.1900845324e+02 1.7300000000e+02 0.0000e+00 1.0000e+00
<mgrwt>
<rscale>  2 0.21875659E+03</rscale>
<asrwt>0</asrwt>
<pdfrwt beam="1">  1       21 0.60460091E-01 0.21875659E+03</pdfrwt>
<pdfrwt beam="2">  1       21 0.22654173E-01 0.21875659E+03</pdfrwt>
<totfact> 0.45967083E+04</totfact>
</mgrwt>
<rwgt>
<wgt id='1'> +6.5137978e+02 </wgt>
<wgt id='2'> +5.3238709e+02 </wgt>
<wgt id='3'> +5.0481800e+02 </wgt>
<wgt id='4'> +6.5137978e+02 </wgt>
<wgt id='5'> +4.8808056e+02 </wgt>
<wgt id='6'> +6.1519754e+02 </wgt>
<wgt id='7'> +4.9631419e+02 </wgt>
<wgt id='8'> +4.7047419e+02 </wgt>
<wgt id='9'> +6.1519753e+02 </wgt>
<wgt id='10'> +4.5491076e+02 </wgt>
<wgt id='11'> +5.7334438e+02 </wgt>
<wgt id='12'> +4.6268046e+02 </wgt>
<wgt id='13'> +4.3865343e+02 </wgt>
<wgt id='14'> +5.7334438e+02 </wgt>
<wgt id='15'> +4.2418798e+02 </wgt>
<wgt id='16'> +5.3450838e+02 </wgt>
<wgt id='17'> +4.4794849e+02 </wgt>
<wgt id='18'> +4.2618668e+02 </wgt>
<wgt id='19'> +5.3450838e+02 </wgt>
<wgt id='20'> +4.1282539e+02 </wgt>
<wgt id='21'> +4.1759689e+02 </wgt>
<wgt id='22'> +3.9719232e+02 </wgt>
<wgt id='23'> +5.0481800e+02 </wgt>
<wgt id='24'> +3.8476990e+02 </wgt>
<wgt id='25'> +4.7047419e+02 </wgt>
<wgt id='26'> +3.8929760e+02 </wgt>
<wgt id='27'> +3.7032802e+02 </wgt>
<wgt id='28'> +4.7047419e+02 </wgt>
<wgt id='29'> +3.5878414e+02 </wgt>
<wgt id='30'> +4.5125243e+02 </wgt>
<wgt id='31'> +3.8216446e+02 </wgt>
<wgt id='32'> +3.6456590e+02 </wgt>
<wgt id='33'> +4.5125243e+02 </wgt>
<wgt id='34'> +3.5372027e+02 </wgt>
<wgt id='35'> +4.2618668e+02 </wgt>
<wgt id='36'> +3.5627018e+02 </wgt>
<wgt id='37'> +3.3976373e+02 </wgt>
<wgt id='38'> +4.2618668e+02 </wgt>
<wgt id='39'> +3.2968155e+02 </wgt>
<wgt id='40'> +3.9719232e+02 </wgt>
<wgt id='41'> +3.3212682e+02 </wgt>
<wgt id='42'> +3.1678364e+02 </wgt>
<wgt id='43'> +3.9719232e+02 </wgt>
<wgt id='44'> +3.0741623e+02 </wgt>
<wgt id='45'> +5.0481800e+02 </wgt>
<wgt id='46'> +5.0854096e+02 </wgt>
<wgt id='47'> +5.2357712e+02 </wgt>
<wgt id='48'> +5.0803525e+02 </wgt>
<wgt id='49'> +5.0258741e+02 </wgt>
<wgt id='50'> +5.9612039e+02 </wgt>
<wgt id='51'> +4.9481576e+02 </wgt>
<wgt id='52'> +5.0285276e+02 </wgt>
<wgt id='53'> +5.0721193e+02 </wgt>
<wgt id='54'> +5.0833413e+02 </wgt>
<wgt id='55'> +4.5505091e+02 </wgt>
<wgt id='56'> +4.6619020e+02 </wgt>
<wgt id='57'> +4.9366902e+02 </wgt>
<wgt id='58'> +5.0421618e+02 </wgt>
<wgt id='59'> +5.0357331e+02 </wgt>
<wgt id='60'> +4.8929898e+02 </wgt>
<wgt id='61'> +4.8016213e+02 </wgt>
<wgt id='62'> +4.9826160e+02 </wgt>
<wgt id='63'> +5.0539541e+02 </wgt>
<wgt id='64'> +4.9720449e+02 </wgt>
<wgt id='65'> +5.8958652e+02 </wgt>
<wgt id='66'> +4.9385380e+02 </wgt>
<wgt id='67'> +5.0912185e+02 </wgt>
<wgt id='68'> +5.4543520e+02 </wgt>
<wgt id='69'> +4.9678854e+02 </wgt>
<wgt id='70'> +4.9632730e+02 </wgt>
<wgt id='71'> +5.1370035e+02 </wgt>
<wgt id='72'> +4.8636482e+02 </wgt>
<wgt id='73'> +4.9586516e+02 </wgt>
<wgt id='74'> +5.2403177e+02 </wgt>
<wgt id='75'> +5.1656424e+02 </wgt>
<wgt id='76'> +4.9093303e+02 </wgt>
<wgt id='77'> +4.8906009e+02 </wgt>
<wgt id='78'> +4.9942943e+02 </wgt>
<wgt id='79'> +4.8781015e+02 </wgt>
<wgt id='80'> +4.9830415e+02 </wgt>
<wgt id='81'> +4.9471530e+02 </wgt>
<wgt id='82'> +5.1399050e+02 </wgt>
<wgt id='83'> +5.1566874e+02 </wgt>
<wgt id='84'> +5.5354029e+02 </wgt>
<wgt id='85'> +5.2845600e+02 </wgt>
<wgt id='86'> +5.0369261e+02 </wgt>
<wgt id='87'> +5.0609723e+02 </wgt>
<wgt id='88'> +5.1317349e+02 </wgt>
<wgt id='89'> +5.1688882e+02 </wgt>
<wgt id='90'> +5.1198089e+02 </wgt>
<wgt id='91'> +5.3341280e+02 </wgt>
<wgt id='92'> +4.6063332e+02 </wgt>
<wgt id='93'> +4.9827916e+02 </wgt>
<wgt id='94'> +4.9907944e+02 </wgt>
<wgt id='95'> +4.8551987e+02 </wgt>
<wgt id='96'> +5.4722287e+02 </wgt>
<wgt id='97'> +5.0939842e+02 </wgt>
<wgt id='98'> +4.8405702e+02 </wgt>
<wgt id='99'> +4.8766267e+02 </wgt>
<wgt id='100'> +4.9296688e+02 </wgt>
<wgt id='101'> +5.3821426e+02 </wgt>
<wgt id='102'> +4.9812600e+02 </wgt>
<wgt id='103'> +5.4895916e+02 </wgt>
<wgt id='104'> +5.0587285e+02 </wgt>
<wgt id='105'> +5.2263568e+02 </wgt>
<wgt id='106'> +4.6074387e+02 </wgt>
<wgt id='107'> +4.9253341e+02 </wgt>
<wgt id='108'> +4.4837923e+02 </wgt>
<wgt id='109'> +4.7245230e+02 </wgt>
<wgt id='110'> +5.0420118e+02 </wgt>
<wgt id='111'> +4.9043001e+02 </wgt>
<wgt id='112'> +4.7914114e+02 </wgt>
<wgt id='113'> +4.6277467e+02 </wgt>
<wgt id='114'> +4.9852927e+02 </wgt>
<wgt id='115'> +4.9782931e+02 </wgt>
<wgt id='116'> +5.1001441e+02 </wgt>
<wgt id='117'> +5.0828571e+02 </wgt>
<wgt id='118'> +5.2190172e+02 </wgt>
<wgt id='119'> +4.8538462e+02 </wgt>
<wgt id='120'> +4.9842548e+02 </wgt>
<wgt id='121'> +4.9023590e+02 </wgt>
<wgt id='122'> +4.9812787e+02 </wgt>
<wgt id='123'> +5.1152551e+02 </wgt>
<wgt id='124'> +5.4510323e+02 </wgt>
<wgt id='125'> +5.4649474e+02 </wgt>
<wgt id='126'> +5.2474672e+02 </wgt>
<wgt id='127'> +5.2042743e+02 </wgt>
<wgt id='128'> +4.6551302e+02 </wgt>
<wgt id='129'> +5.7133319e+02 </wgt>
<wgt id='130'> +5.0788771e+02 </wgt>
<wgt id='131'> +5.3804675e+02 </wgt>
<wgt id='132'> +5.0628248e+02 </wgt>
<wgt id='133'> +5.0612972e+02 </wgt>
<wgt id='134'> +4.7798438e+02 </wgt>
<wgt id='135'> +5.1674726e+02 </wgt>
<wgt id='136'> +4.9127468e+02 </wgt>
<wgt id='137'> +4.7776896e+02 </wgt>
<wgt id='138'> +4.6414486e+02 </wgt>
<wgt id='139'> +5.1637743e+02 </wgt>
<wgt id='140'> +5.3249628e+02 </wgt>
<wgt id='141'> +5.0606559e+02 </wgt>
<wgt id='142'> +5.0023727e+02 </wgt>
<wgt id='143'> +5.0389805e+02 </wgt>
<wgt id='144'> +5.0143511e+02 </wgt>
<wgt id='145'> +5.0559379e+02 </wgt>
</rwgt>
</event>
<event>
 4      1 +5.0481800e+02 1.80464800e+02 7.54677100e-03 1.16735400e-01
       21 -1    0    0  501  502 +0.0000000000e+00 +0.0000000000e+00 +7.2588082070e+01 7.2588082070e+01 0.0000000000e+00 0.0000e+00 -1.0000e+00
       21 -1    0    0  502  503 -0.0000000000e+00 -0.0000000000e+00 -4.4907733980e+02 4.4907733980e+02 0.0000000000e+00 0.0000e+00 -1.0000e+00
        6  1    1    2  501    0 +2.6881264196e+01 -4.3771291580e+01 -1.8031412880e+02 2.5510921853e+02 1.7300000000e+02 0.0000e+00 -1.0000e+00
       -6  1    1    2    0  503 -2.6881264196e+01 +4.3771291580e+01 -1.9617512893e+02 2.6655620334e+02 1.7300000000e+02 0.0000e+00 -1.0000e+00
<mgrwt>
<rscale>  2 0.18046476E+03</rscale>
<asrwt>0</asrwt>
<pdfrwt beam="1">  1       21 0.11167397E-01 0.18046476E+03</pdfrwt>
<pdfrwt beam="2">  1       21 0.69088822E-01 0.18046476E+03</pdfrwt>
<totfact> 0.12779107E+05</totfact>
</mgrwt>
<rwgt>
<wgt id='1'> +6.4285128e+02 </wgt>
<wgt id='2'> +7.0967806e+02 </wgt>
<wgt id='3'> +5.0481800e+02 </wgt>
<wgt id='4'> +6.4285128e+02 </wgt>
<wgt id='5'> +5.0473900e+02 </wgt>
<wgt id='6'> +6.2135081e+02 </wgt>
<wgt id='7'> +6.8918352e+02 </wgt>
<wgt id='8'> +4.7816716e+02 </wgt>
<wgt id='9'> +6.2135082e+02 </wgt>
<wgt id='10'> +4.7808936e+02 </wgt>
<wgt id='11'> +5.8854786e+02 </wgt>
<wgt id='12'> +6.5719221e+02 </wgt>
<wgt id='13'> +4.5193560e+02 </wgt>
<wgt id='14'> +5.8854786e+02 </wgt>
<wgt id='15'> +4.5186177e+02 </wgt>
<wgt id='16'> +5.2228611e+02 </wgt>
<wgt id='17'> +5.7069021e+02 </wgt>
<wgt id='18'> +4.2418469e+02 </wgt>
<wgt id='19'> +5.2228611e+02 </wgt>
<wgt id='20'> +4.2412451e+02 </wgt>
<wgt id='21'> +5.5420945e+02 </wgt>
<wgt id='22'> +4.0179072e+02 </wgt>
<wgt id='23'> +5.0481800e+02 </wgt>
<wgt id='24'> +4.0173123e+02 </wgt>
<wgt id='25'> +4.7816716e+02 </wgt>
<wgt id='26'> +5.2848351e+02 </wgt>
<wgt id='27'> +3.7974907e+02 </wgt>
<wgt id='28'> +4.7816716e+02 </wgt>
<wgt id='29'> +3.7969258e+02 </wgt>
<wgt id='30'> +4.3886266e+02 </wgt>
<wgt id='31'> +4.7390876e+02 </wgt>
<wgt id='32'> +3.6159941e+02 </wgt>
<wgt id='33'> +4.3886267e+02 </wgt>
<wgt id='34'> +3.6155116e+02 </wgt>
<wgt id='35'> +4.2418469e+02 </wgt>
<wgt id='36'> +4.6022291e+02 </wgt>
<wgt id='37'> +3.4250950e+02 </wgt>
<wgt id='38'> +4.2418469e+02 </wgt>
<wgt id='39'> +3.4246168e+02 </wgt>
<wgt id='40'> +4.0179072e+02 </wgt>
<wgt id='41'> +4.3885975e+02 </wgt>
<wgt id='42'> +3.2371993e+02 </wgt>
<wgt id='43'> +4.0179072e+02 </wgt>
<wgt id='44'> +3.2367451e+02 </wgt>
<wgt id='45'> +5.0481800e+02 </wgt>
<wgt id='46'> +5.0697570e+02 </wgt>
<wgt id='47'> +5.1874472e+02 </wgt>
<wgt id='48'> +5.0574647e+02 </wgt>
<wgt id='49'> +5.0214143e+02 </wgt>
<wgt id='50'> +5.8128223e+02 </wgt>
<wgt id='51'> +4.9493820e+02 </wgt>
<wgt id='52'> +5.0370145e+02 </wgt>
<wgt id='53'> +5.0594591e+02 </wgt>
<wgt id='54'> +5.0869273e+02 </wgt>
<wgt id='55'> +4.6455416e+02 </wgt>
<wgt id='56'> +4.7014001e+02 </wgt>
<wgt id='57'> +4.9809950e+02 </wgt>
<wgt id='58'> +5.0663413e+02 </wgt>
<wgt id='59'> +5.0677099e+02 </wgt>
<wgt id='60'> +4.9352061e+02 </wgt>
<wgt id='61'> +4.7631245e+02 </wgt>
<wgt id='62'> +4.9743051e+02 </wgt>
<wgt id='63'> +5.0562007e+02 </wgt>
<wgt id='64'> +4.9960391e+02 </wgt>
<wgt id='65'> +5.7493852e+02 </wgt>
<wgt id='66'> +4.9386766e+02 </wgt>
<wgt id='67'> +5.0869341e+02 </wgt>
<wgt id='68'> +5.4277107e+02 </wgt>
<wgt id='69'> +4.9266740e+02 </wgt>
<wgt id='70'> +4.9798636e+02 </wgt>
<wgt id='71'> +5.1308387e+02 </wgt>
<wgt id='72'> +4.9523899e+02 </wgt>
<wgt id='73'> +4.9747871e+02 </wgt>
<wgt id='74'> +5.2176232e+02 </wgt>
<wgt id='75'> +5.1414580e+02 </wgt>
<wgt id='76'> +4.9470096e+02 </wgt>
<wgt id='77'> +4.9031087e+02 </wgt>
<wgt id='78'> +4.9892337e+02 </wgt>
<wgt id='79'> +4.8997082e+02 </wgt>
<wgt id='80'> +4.9846506e+02 </wgt>
<wgt id='81'> +4.9686960e+02 </wgt>
<wgt id='82'> +5.1106067e+02 </wgt>
<wgt id='83'> +5.1074034e+02 </wgt>
<wgt id='84'> +5.4481625e+02 </wgt>
<wgt id='85'> +5.2349894e+02 </wgt>
<wgt id='86'> +5.0179797e+02 </wgt>
<wgt id='87'> +5.0577189e+02 </wgt>
<wgt id='88'> +5.0858681e+02 </wgt>
<wgt id='89'> +5.1482437e+02 </wgt>
<wgt id='90'> +5.1263131e+02 </wgt>
<wgt id='91'> +5.2914001e+02 </wgt>
<wgt id='92'> +4.7072493e+02 </wgt>
<wgt id='93'> +4.9792767e+02 </wgt>
<wgt id='94'> +5.0056338e+02 </wgt>
<wgt id='95'> +4.9159424e+02 </wgt>
<wgt id='96'> +5.3779720e+02 </wgt>
<wgt id='97'> +5.0871238e+02 </wgt>
<wgt id='98'> +4.8614349e+02 </wgt>
<wgt id='99'> +4.8887233e+02 </wgt>
<wgt id='100'> +4.9536881e+02 </wgt>
<wgt id='101'> +5.3494661e+02 </wgt>
<wgt id='102'> +4.9767415e+02 </wgt>
<wgt id='103'> +5.4334366e+02 </wgt>
<wgt id='104'> +5.0332592e+02 </wgt>
<wgt id='105'> +5.2450051e+02 </wgt>
<wgt id='106'> +4.6889869e+02 </wgt>
<wgt id='107'> +4.9624661e+02 </wgt>
<wgt id='108'> +4.5531113e+02 </wgt>
<wgt id='109'> +4.7826925e+02 </wgt>
<wgt id='110'> +5.0573827e+02 </wgt>
<wgt id='111'> +4.9304027e+02 </wgt>
<wgt id='112'> +4.8215379e+02 </wgt>
<wgt id='113'> +4.6870661e+02 </wgt>
<wgt id='114'> +5.0205423e+02 </wgt>
<wgt id='115'> +4.9553582e+02 </wgt>
<wgt id='116'> +5.0696966e+02 </wgt>
<wgt id='117'> +5.0646713e+02 </wgt>
<wgt id='118'> +5.1844757e+02 </wgt>
<wgt id='119'> +4.8998254e+02 </wgt>
<wgt id='120'> +4.9725215e+02 </wgt>
<wgt id='121'> +4.9498339e+02 </wgt>
<wgt id='122'> +4.9969193e+02 </wgt>
<wgt id='123'> +5.0793653e+02 </wgt>
<wgt id='124'> +5.4068420e+02 </wgt>
<wgt id='125'> +5.4318692e+02 </wgt>
<wgt id='126'> +5.2008167e+02 </wgt>
<wgt id='127'> +5.1759081e+02 </wgt>
<wgt id='128'> +4.6655592e+02 </wgt>
<wgt id='129'> +5.6557020e+02 </wgt>
<wgt id='130'> +5.0233217e+02 </wgt>
<wgt id='131'> +5.3402118e+02 </wgt>
<wgt id='132'> +5.1094990e+02 </wgt>
<wgt id='133'> +5.0551862e+02 </wgt>
<wgt id='134'> +4.8262934e+02 </wgt>
<wgt id='135'> +5.1540842e+02 </wgt>
<wgt id='136'> +4.9782001e+02 </wgt>
<wgt id='137'> +4.7779978e+02 </wgt>
<wgt id='138'> +4.6183327e+02 </wgt>
<wgt id='139'> +5.1558740e+02 </wgt>
<wgt id='140'> +5.2982191e+02 </wgt>
<wgt id='141'> +5.0533746e+02 </wgt>
<wgt id='142'> +4.9893059e+02 </wgt>
<wgt id='143'> +5.0659589e+02 </wgt>
<wgt id='144'> +5.0405465e+02 </wgt>
<wgt id='145'> +5.0472279e+02 </wgt>
</rwgt>
</event>
<event>
 4      1 +5.0481800e+02 1.76689900e+02 7.54677100e-03 1.17104600e-01
       21 -1    0    0  503  502 +0.0000000000e+00 +0.0000000000e+00 +1.6932048712e+02 1.6932048712e+02 0.0000000000e+00 0.0000e+00 -1.0000e+00
       21 -1    0    0  501  503 -0.0000000000e+00 -0.0000000000e+00 -2.2202663779e+02 2.2202663779e+02 0.0000000000e+00 0.0000e+00 -1.0000e+00
        6  1    1    2  501    0 +3.5048040643e+01 +7.8718678603e+00 +5.4220386918e+01 1.8482202741e+02 1.7300000000e+02 0.0000e+00 -1.0000e+00
       -6  1    1    2    0  502 -3.5048040643e+01 -7.8718678603e+00 -1.0692653759e+02 2.0652509750e+02 1.7300000000e+02 0.0000e+00 -1.0000e+00
<mgrwt>
<rscale>  2 0.17668993E+03</rscale>
<asrwt>0</asrwt>
<pdfrwt beam="1">  1       21 0.26049306E-01 0.17668993E+03</pdfrwt>
<pdfrwt beam="2">  1       21 0.34157944E-01 0.17668993E+03</pdfrwt>
<totfact> 0.11628834E+05</totfact>
</mgrwt>
<rwgt>
<wgt id='1'> +6.4332877e+02 </wgt>
<wgt id='2'> +6.5537969e+02 </wgt>
<wgt id='3'> +5.0481800e+02 </wgt>
<wgt id='4'> +6.4332877e+02 </wgt>
<wgt id='5'> +4.8921480e+02 </wgt>
<wgt id='6'> +6.2199222e+02 </wgt>
<wgt id='7'> +6.3438623e+02 </wgt>
<wgt id='8'> +4.7833431e+02 </wgt>
<wgt id='9'> +6.2199222e+02 </wgt>
<wgt id='10'> +4.6305400e+02 </wgt>
<wgt id='11'> +5.8936136e+02 </wgt>
<wgt id='12'> +6.0161394e+02 </wgt>
<wgt id='13'> +4.5221491e+02 </wgt>
<wgt id='14'> +5.8936136e+02 </wgt>
<wgt id='15'> +4.3772090e+02 </wgt>
<wgt id='16'> +5.2213506e+02 </wgt>
<wgt id='17'> +5.3070793e+02 </wgt>
<wgt id='18'> +4.2389464e+02 </wgt>
<wgt id='19'> +5.2213506e+02 </wgt>
<wgt id='20'> +4.1194365e+02 </wgt>
<wgt id='21'> +5.1370802e+02 </wgt>
<wgt id='22'> +4.0165635e+02 </wgt>
<wgt id='23'> +5.0481800e+02 </wgt>
<wgt id='24'> +3.8991493e+02 </wgt>
<wgt id='25'> +4.7833431e+02 </wgt>
<wgt id='26'> +4.8716995e+02 </wgt>
<wgt id='27'> +3.7972394e+02 </wgt>
<wgt id='28'> +4.7833431e+02 </wgt>
<wgt id='29'> +3.6858317e+02 </wgt>
<wgt id='30'> +4.3843574e+02 </wgt>
<wgt id='31'> +4.4483215e+02 </wgt>
<wgt id='32'> +3.6121204e+02 </wgt>
<wgt id='33'> +4.3843574e+02 </wgt>
<wgt id='34'> +3.5162289e+02 </wgt>
<wgt id='35'> +4.2389464e+02 </wgt>
<wgt id='36'> +4.3058306e+02 </wgt>
<wgt id='37'> +3.4226219e+02 </wgt>
<wgt id='38'> +4.2389464e+02 </wgt>
<wgt id='39'> +3.3281983e+02 </wgt>
<wgt id='40'> +4.0165635e+02 </wgt>
<wgt id='41'> +4.0833920e+02 </wgt>
<wgt id='42'> +3.2357299e+02 </wgt>
<wgt id='43'> +4.0165635e+02 </wgt>
<wgt id='44'> +3.1461167e+02 </wgt>
<wgt id='45'> +5.0481800e+02 </wgt>
<wgt id='46'> +5.0045983e+02 </wgt>
<wgt id='47'> +5.2060827e+02 </wgt>
<wgt id='48'> +5.0367669e+02 </wgt>
<wgt id='49'> +5.0437068e+02 </wgt>
<wgt id='50'> +5.7777383e+02 </wgt>
<wgt id='51'> +4.9512905e+02 </wgt>
<wgt id='52'> +5.0074385e+02 </wgt>
<wgt id='53'> +5.1470643e+02 </wgt>
<wgt id='54'> +5.0761298e+02 </wgt>
<wgt id='55'> +4.5083187e+02 </wgt>
<wgt id='56'> +4.7457595e+02 </wgt>
<wgt id='57'> +4.9071717e+02 </wgt>
<wgt id='58'> +5.1242853e+02 </wgt>
<wgt id='59'> +4.9185162e+02 </wgt>
<wgt id='60'> +4.7918294e+02 </wgt>
<wgt id='61'> +5.0198402e+02 </wgt>
<wgt id='62'> +4.9752609e+02 </wgt>
<wgt id='63'> +5.0523426e+02 </wgt>
<wgt id='64'> +5.0433030e+02 </wgt>
<wgt id='65'> +5.9771297e+02 </wgt>
<wgt id='66'> +4.9185992e+02 </wgt>
<wgt id='67'> +5.0944251e+02 </wgt>
<wgt id='68'> +5.3517058e+02 </wgt>
<wgt id='69'> +4.8715404e+02 </wgt>
<wgt id='70'> +4.9718213e+02 </wgt>
<wgt id='71'> +5.1469322e+02 </wgt>
<wgt id='72'> +4.9814137e+02 </wgt>
<wgt id='73'> +5.0045525e+02 </wgt>
<wgt id='74'> +5.1484902e+02 </wgt>
<wgt id='75'> +5.1491235e+02 </wgt>
<wgt id='76'> +4.9071694e+02 </wgt>
<wgt id='77'> +4.8330453e+02 </wgt>
<wgt id='78'> +5.1081567e+02 </wgt>
<wgt id='79'> +4.8097485e+02 </wgt>
<wgt id='80'> +5.0246910e+02 </wgt>
<wgt id='81'> +4.9715709e+02 </wgt>
<wgt id='82'> +5.2186483e+02 </wgt>
<wgt id='83'> +5.1344360e+02 </wgt>
<wgt id='84'> +5.5284441e+02 </wgt>
<wgt id='85'> +5.3208345e+02 </wgt>
<wgt id='86'> +4.9880257e+02 </wgt>
<wgt id='87'> +5.0314487e+02 </wgt>
<wgt id='88'> +5.1267200e+02 </wgt>
<wgt id='89'> +5.1492255e+02 </wgt>
<wgt id='90'> +5.0858548e+02 </wgt>
<wgt id='91'> +5.3923841e+02 </wgt>
<wgt id='92'> +4.7184613e+02 </wgt>
<wgt id='93'> +4.9356449e+02 </wgt>
<wgt id='94'> +5.0552060e+02 </wgt>
<wgt id='95'> +4.8539608e+02 </wgt>
<wgt id='96'> +5.4038461e+02 </wgt>
<wgt id='97'> +5.1569813e+02 </wgt>
<wgt id='98'> +4.8008646e+02 </wgt>
<wgt id='99'> +4.9229497e+02 </wgt>
<wgt id='100'> +5.0917472e+02 </wgt>
<wgt id='101'> +5.2067718e+02 </wgt>
<wgt id='102'> +4.8196042e+02 </wgt>
<wgt id='103'> +5.4488420e+02 </wgt>
<wgt id='104'> +5.0170599e+02 </wgt>
<wgt id='105'> +5.2778516e+02 </wgt>
<wgt id='106'> +4.7131511e+02 </wgt>
<wgt id='107'> +5.0640450e+02 </wgt>
<wgt id='108'> +4.5941410e+02 </wgt>
<wgt id='109'> +4.7842867e+02 </wgt>
<wgt id='110'> +5.0730141e+02 </wgt>
<wgt id='111'> +4.9414505e+02 </wgt>
<wgt id='112'> +4.8599866e+02 </wgt>
<wgt id='113'> +4.6659156e+02 </wgt>
<wgt id='114'> +5.1127255e+02 </wgt>
<wgt id='115'> +5.1487385e+02 </wgt>
<wgt id='116'> +4.9755238e+02 </wgt>
<wgt id='117'> +5.1488652e+02 </wgt>
<wgt id='118'> +5.1145239e+02 </wgt>
<wgt id='119'> +4.8700770e+02 </wgt>
<wgt id='120'> +5.0857691e+02 </wgt>
<wgt id='121'> +4.9254972e+02 </wgt>
<wgt id='122'> +4.9904741e+02 </wgt>
<wgt id='123'> +5.1003380e+02 </wgt>
<wgt id='124'> +5.3096590e+02 </wgt>
<wgt id='125'> +5.3279282e+02 </wgt>
<wgt id='126'> +5.2192663e+02 </wgt>
<wgt id='127'> +5.1765405e+02 </wgt>
<wgt id='128'> +4.7326707e+02 </wgt>
<wgt id='129'> +5.6958001e+02 </wgt>
<wgt id='130'> +5.0809183e+02 </wgt>
<wgt id='131'> +5.4169583e+02 </wgt>
<wgt id='132'> +4.9328008e+02 </wgt>
<wgt id='133'> +4.9607951e+02 </wgt>
<wgt id='134'> +4.7303143e+02 </wgt>
<wgt id='135'> +5.1810402e+02 </wgt>
<wgt id='136'> +4.7878050e+02 </wgt>
<wgt id='137'> +4.7334626e+02 </wgt>
<wgt id='138'> +4.5347892e+02 </wgt>
<wgt id='139'> +5.1186399e+02 </wgt>
<wgt id='140'> +5.4016711e+02 </wgt>
<wgt id='141'> +5.0231432e+02 </wgt>
<wgt id='142'> +5.1537345e+02 </wgt>
<wgt id='143'> +4.9708708e+02 </wgt>
<wgt id='144'> +5.0789689e+02 </wgt>
<wgt id='145'> +5.0590981e+02 </wgt>
</rwgt>
</event>
<event>
 4      1 +5.0481800e+02 1.88940600e+02 7.54677100e-03 1.15942000e-01
       21 -1    0    0  501  502 +0.0000000000e+00 +0.0000000000e+00 +8.2932109848e+01 8.2932109848e+01 0.0000000000e+00 0.0000e+00 1.0000e+00
       21 -1    0    0  502  503 -0.0000000000e+00 -0.0000000000e+00 -5.1629172069e+02 5.1629172069e+02 0.0000000000e+00 0.0000e+00 -1.0000e+00
        6  1    1    2  501    0 +4.5928031759e+00 +7.5818548159e+01 -9.4514491705e+01 2.1126176944e+02 1.7300000000e+02 0.0000e+00 1.0000e+00
       -6  1    1    2    0  503 -4.5928031759e+00 -7.5818548159e+01 -3.3884511914e+02 3.8796206110e+02 1.7300000000e+02 0.0000e+00 -1.0000e+00
<mgrwt>
<rscale>  2 0.18894059E+03</rscale>
<asrwt>0</asrwt>
<pdfrwt beam="1">  1       21 0.12758786E-01 0.18894059E+03</pdfrwt>
<pdfrwt beam="2">  1       21 0.79429497E-01 0.18894059E+03</pdfrwt>
<totfact> 0.73602921E+04</totfact>
</mgrwt>
<rwgt>
<wgt id='1'> +6.4896686e+02 </wgt>
<wgt id='2'> +6.1617755e+02 </wgt>
<wgt id='3'> +5.0481800e+02 </wgt>
<wgt id='4'> +6.4896686e+02 </wgt>
<wgt id='5'> +4.8900429e+02 </wgt>
<wgt id='6'> +6.2004467e+02 </wgt>
<wgt id='7'> +5.8619412e+02 </wgt>
<wgt id='8'> +4.7354170e+02 </wgt>
<wgt id='9'> +6.2004467e+02 </wgt>
<wgt id='10'> +4.5849396e+02 </wgt>
<wgt id='11'> +5.8162943e+02 </wgt>
<wgt id='12'> +5.4961755e+02 </wgt>
<wgt id='13'> +4.4385216e+02 </wgt>
<wgt id='14'> +5.8162943e+02 </wgt>
<wgt id='15'> +4.2974445e+02 </wgt>
<wgt id='16'> +5.2836540e+02 </wgt>
<wgt id='17'> +5.0542028e+02 </wgt>
<wgt id='18'> +4.2477297e+02 </wgt>
<wgt id='19'> +5.2836540e+02 </wgt>
<wgt id='20'> +4.1239405e+02 </wgt>
<wgt id='21'> +4.8082634e+02 </wgt>
<wgt id='22'> +3.9845590e+02 </wgt>
<wgt id='23'> +5.0481800e+02 </wgt>
<wgt id='24'> +3.8666365e+02 </wgt>
<wgt id='25'> +4.7354169e+02 </wgt>
<wgt id='26'> +4.5082437e+02 </wgt>
<wgt id='27'> +3.7347400e+02 </wgt>
<wgt id='28'> +4.7354170e+02 </wgt>
<wgt id='29'> +3.6241820e+02 </wgt>
<wgt id='30'> +4.4458664e+02 </wgt>
<wgt id='31'> +4.2663848e+02 </wgt>
<wgt id='32'> +3.6240367e+02 </wgt>
<wgt id='33'> +4.4458664e+02 </wgt>
<wgt id='34'> +3.5242069e+02 </wgt>
<wgt id='35'> +4.2477297e+02 </wgt>
<wgt id='36'> +4.0587809e+02 </wgt>
<wgt id='37'> +3.3995073e+02 </wgt>
<wgt id='38'> +4.2477297e+02 </wgt>
<wgt id='39'> +3.3043219e+02 </wgt>
<wgt id='40'> +3.9845590e+02 </wgt>
<wgt id='41'> +3.8055265e+02 </wgt>
<wgt id='42'> +3.1863691e+02 </wgt>
<wgt id='43'> +3.9845590e+02 </wgt>
<wgt id='44'> +3.0971269e+02 </wgt>
<wgt id='45'> +5.0481800e+02 </wgt>
<wgt id='46'> +5.1011114e+02 </wgt>
<wgt id='47'> +5.1995997e+02 </wgt>
<wgt id='48'> +5.0717520e+02 </wgt>
<wgt id='49'> +5.0035829e+02 </wgt>
<wgt id='50'> +5.8981337e+02 </wgt>
<wgt id='51'> +4.9406558e+02 </wgt>
<wgt id='52'> +5.0380461e+02 </wgt>
<wgt id='53'> +5.0359904e+02 </wgt>
<wgt id='54'> +5.1005208e+02 </wgt>
<wgt id='55'> +4.6792586e+02 </wgt>
<wgt id='56'> +4.6643010e+02 </wgt>
<wgt id='57'> +5.0055964e+02 </wgt>
<wgt id='58'> +5.0220190e+02 </wgt>
<wgt id='59'> +5.1209700e+02 </wgt>
<wgt id='60'> +4.9647912e+02 </wgt>
<wgt id='61'> +4.6338480e+02 </wgt>
<wgt id='62'> +4.9678181e+02 </wgt>
<wgt id='63'> +5.0599856e+02 </wgt>
<wgt id='64'> +4.9769705e+02 </wgt>
<wgt id='65'> +5.7212881e+02 </wgt>
<wgt id='66'> +4.9458268e+02 </wgt>
<wgt id='67'> +5.0845251e+02 </wgt>
<wgt id='68'> +5.4802070e+02 </wgt>
<wgt id='69'> +4.9710981e+02 </wgt>
<wgt id='70'> +4.9793823e+02 </wgt>
<wgt id='71'> +5.1210009e+02 </wgt>
<wgt id='72'> +4.9095954e+02 </wgt>
<wgt id='73'> +4.9441401e+02 </wgt>
<wgt id='74'> +5.2615259e+02 </wgt>
<wgt id='75'> +5.1530237e+02 </wgt>
<wgt id='76'> +4.9560020e+02 </wgt>
<wgt id='77'> +4.9177326e+02 </wgt>
<wgt id='78'> +4.9347004e+02 </wgt>
<wgt id='79'> +4.9278510e+02 </wgt>
<wgt id='80'> +4.9569279e+02 </wgt>
<wgt id='81'> +4.9614585e+02 </wgt>
<wgt id='82'> +5.0668082e+02 </wgt>
<wgt id='83'> +5.1140706e+02 </wgt>
<wgt id='84'> +5.4489462e+02 </wgt>
<wgt id='85'> +5.2082712e+02 </wgt>
<wgt id='86'> +5.0390362e+02 </wgt>
<wgt id='87'> +5.0667547e+02 </wgt>
<wgt id='88'> +5.0847046e+02 </wgt>
<wgt id='89'> +5.1379462e+02 </wgt>
<wgt id='90'> +5.1326380e+02 </wgt>
<wgt id='91'> +5.2544284e+02 </wgt>
<wgt id='92'> +4.6649547e+02 </wgt>
<wgt id='93'> +4.9948944e+02 </wgt>
<wgt id='94'> +4.9720225e+02 </wgt>
<wgt id='95'> +4.9332700e+02 </wgt>
<wgt id='96'> +5.3977644e+02 </wgt>
<wgt id='97'> +5.0556196e+02 </wgt>
<wgt id='98'> +4.8850213e+02 </wgt>
<wgt id='99'> +4.8520033e+02 </wgt>
<wgt id='100'> +4.8661191e+02 </wgt>
<wgt id='101'> +5.4279574e+02 </wgt>
<wgt id='102'> +5.0496100e+02 </wgt>
<wgt id='103'> +5.4393439e+02 </wgt>
<wgt id='104'> +5.0573201e+02 </wgt>
<wgt id='105'> +5.2317548e+02 </wgt>
<wgt id='106'> +4.6541109e+02 </wgt>
<wgt id='107'> +4.9080557e+02 </wgt>
<wgt id='108'> +4.5132805e+02 </wgt>
<wgt id='109'> +4.7674391e+02 </wgt>
<wgt id='110'> +5.0362473e+02 </wgt>
<wgt id='111'> +4.9215189e+02 </wgt>
<wgt id='112'> +4.8043393e+02 </wgt>
<wgt id='113'> +4.6803207e+02 </wgt>
<wgt id='114'> +4.9912686e+02 </wgt>
<wgt id='115'> +4.9002886e+02 </wgt>
<wgt id='116'> +5.1244927e+02 </wgt>
<wgt id='117'> +5.0419740e+02 </wgt>
<wgt id='118'> +5.2246864e+02 </wgt>
<wgt id='119'> +4.9059893e+02 </wgt>
<wgt id='120'> +4.9573331e+02 </wgt>
<wgt id='121'> +4.9465706e+02 </wgt>
<wgt id='122'> +4.9957580e+02 </wgt>
<wgt id='123'> +5.0832427e+02 </wgt>
<wgt id='124'> +5.4710448e+02 </wgt>
<wgt id='125'> +5.5038995e+02 </wgt>
<wgt id='126'> +5.2057516e+02 </wgt>
<wgt id='127'> +5.1794584e+02 </wgt>
<wgt id='128'> +4.6382442e+02 </wgt>
<wgt id='129'> +5.6611495e+02 </wgt>
<wgt id='130'> +5.0166303e+02 </wgt>
<wgt id='131'> +5.3147714e+02 </wgt>
<wgt id='132'> +5.1688907e+02 </wgt>
<wgt id='133'> +5.1007735e+02 </wgt>
<wgt id='134'> +4.8503656e+02 </wgt>
<wgt id='135'> +5.1424637e+02 </wgt>
<wgt id='136'> +5.0501602e+02 </wgt>
<wgt id='137'> +4.7992973e+02 </wgt>
<wgt id='138'> +4.6630892e+02 </wgt>
<wgt id='139'> +5.1719069e+02 </wgt>
<wgt id='140'> +5.2661124e+02 </wgt>
<wgt id='141'> +5.0805672e+02 </wgt>
<wgt id='142'> +4.9005027e+02 </wgt>
<wgt id='143'> +5.0915152e+02 </wgt>
<wgt id='144'> +5.0050216e+02 </wgt>
<wgt id='145'> +5.0377358e+02 </wgt>
</rwgt>
</event>
<event>
 4      1 +5.0481800e+02 1.78101100e+02 7.54677100e-03 1.16965400e-01
       21 -1    0    0  501  502 +0.0000000000e+00 +0.0000000000e+00 +7.1598631503e+02 7.1598631503e+02 0.0000000000e+00 0.0000e+00 1.0000e+00
       21 -1    0    0  502  503 -0.0000000000e+00 -0.0000000000e+00 -1.1073865953e+02 1.1073865953e+02 0.0000000000e+00 0.0000e+00 1.0000e+00
        6  1    1    2  501    0 +3.3784083582e+01 -2.5487911080e+01 +6.2279603171e+02 6.4776144917e+02 1.7300000000e+02 0.0000e+00 1.0000e+00
       -6  1    1    2    0  503 -3.3784083582e+01 +2.5487911080e+01 -1.7548376215e+01 1.7896352540e+02 1.7300000000e+02 0.0000e+00 1.0000e+00
<mgrwt>
<rscale>  2 0.17810109E+03</rscale>
<asrwt>0</asrwt>
<pdfrwt beam="1">  1       21 0.11015174E+00 0.17810109E+03</pdfrwt>
<pdfrwt beam="2">  1       21 0.17036717E-01 0.17810109E+03</pdfrwt>
<totfact> 0.20412336E+04</totfact>
</mgrwt>
<rwgt>
<wgt id='1'> +6.6717262e+02 </wgt>
<wgt id='2'> +6.2424753e+02 </wgt>
<wgt id='3'> +5.0481800e+02 </wgt>
<wgt id='4'> +6.6717263e+02 </wgt>
<wgt id='5'> +4.2398524e+02 </wgt>
<wgt id='6'> +6.2175524e+02 </wgt>
<wgt id='7'> +5.7956091e+02 </wgt>
<wgt id='8'> +4.6281118e+02 </wgt>
<wgt id='9'> +6.2175524e+02 </wgt>
<wgt id='10'> +3.8878881e+02 </wgt>
<wgt id='11'> +5.7001786e+02 </wgt>
<wgt id='12'> +5.3103310e+02 </wgt>
<wgt id='13'> +4.2464214e+02 </wgt>
<wgt id='14'> +5.7001787e+02 </wgt>
<wgt id='15'> +3.5720080e+02 </wgt>
<wgt id='16'> +5.4169346e+02 </wgt>
<wgt id='17'> +5.1095677e+02 </wgt>
<wgt id='18'> +4.2400532e+02 </wgt>
<wgt id='19'> +5.4169346e+02 </wgt>
<wgt id='20'> +3.5973485e+02 </wgt>
<wgt id='21'> +4.7438004e+02 </wgt>
<wgt id='22'> +3.8872307e+02 </wgt>
<wgt id='23'> +5.0481800e+02 </wgt>
<wgt id='24'> +3.2987206e+02 </wgt>
<wgt id='25'> +4.6281118e+02 </wgt>
<wgt id='26'> +4.3465924e+02 </wgt>
<wgt id='27'> +3.5666424e+02 </wgt>
<wgt id='28'> +4.6281118e+02 </wgt>
<wgt id='29'> +3.0307088e+02 </wgt>
<wgt id='30'> +4.5497766e+02 </wgt>
<wgt id='31'> +4.3100356e+02 </wgt>
<wgt id='32'> +3.6135925e+02 </wgt>
<wgt id='33'> +4.5497766e+02 </wgt>
<wgt id='34'> +3.0905353e+02 </wgt>
<wgt id='35'> +4.2400532e+02 </wgt>
<wgt id='36'> +4.0015027e+02 </wgt>
<wgt id='37'> +3.3128989e+02 </wgt>
<wgt id='38'> +4.2400532e+02 </wgt>
<wgt id='39'> +2.8339796e+02 </wgt>
<wgt id='40'> +3.8872307e+02 </wgt>
<wgt id='41'> +3.6664488e+02 </wgt>
<wgt id='42'> +3.0396770e+02 </wgt>
<wgt id='43'> +3.8872307e+02 </wgt>
<wgt id='44'> +2.6037267e+02 </wgt>
<wgt id='45'> +5.0481800e+02 </wgt>
<wgt id='46'> +5.1705018e+02 </wgt>
<wgt id='47'> +5.2160691e+02 </wgt>
<wgt id='48'> +5.0845570e+02 </wgt>
<wgt id='49'> +4.9360571e+02 </wgt>
<wgt id='50'> +6.0835402e+02 </wgt>
<wgt id='51'> +4.9007248e+02 </wgt>
<wgt id='52'> +5.0178016e+02 </wgt>
<wgt id='53'> +4.9870089e+02 </wgt>
<wgt id='54'> +5.1577698e+02 </wgt>
<wgt id='55'> +4.8199852e+02 </wgt>
<wgt id='56'> +4.5996282e+02 </wgt>
<wgt id='57'> +5.0904469e+02 </wgt>
<wgt id='58'> +4.8956544e+02 </wgt>
<wgt id='59'> +5.2626128e+02 </wgt>
<wgt id='60'> +5.0276720e+02 </wgt>
<wgt id='61'> +4.4101260e+02 </wgt>
<wgt id='62'> +4.9254152e+02 </wgt>
<wgt id='63'> +5.0914679e+02 </wgt>
<wgt id='64'> +4.9564312e+02 </wgt>
<wgt id='65'> +5.5820496e+02 </wgt>
<wgt id='66'> +4.9678476e+02 </wgt>
<wgt id='67'> +5.0761490e+02 </wgt>
<wgt id='68'> +5.6228668e+02 </wgt>
<wgt id='69'> +5.0849942e+02 </wgt>
<wgt id='70'> +5.0035310e+02 </wgt>
<wgt id='71'> +5.0659228e+02 </wgt>
<wgt id='72'> +4.8122200e+02 </wgt>
<wgt id='73'> +4.8444776e+02 </wgt>
<wgt id='74'> +5.3875194e+02 </wgt>
<wgt id='75'> +5.1916081e+02 </wgt>
<wgt id='76'> +4.9954026e+02 </wgt>
<wgt id='77'> +4.9332198e+02 </wgt>
<wgt id='78'> +4.7760024e+02 </wgt>
<wgt id='79'> +5.0137098e+02 </wgt>
<wgt id='80'> +4.8670539e+02 </wgt>
<wgt id='81'> +4.9624301e+02 </wgt>
<wgt id='82'> +4.9546870e+02 </wgt>
<wgt id='83'> +5.1090123e+02 </wgt>
<wgt id='84'> +5.4094679e+02 </wgt>
<wgt id='85'> +5.1021382e+02 </wgt>
<wgt id='86'> +5.0972282e+02 </wgt>
<wgt id='87'> +5.0788154e+02 </wgt>
<wgt id='88'> +5.0667542e+02 </wgt>
<wgt id='89'> +5.0531599e+02 </wgt>
<wgt id='90'> +5.1133328e+02 </wgt>
<wgt id='91'> +5.1105128e+02 </wgt>
<wgt id='92'> +4.5816910e+02 </wgt>
<wgt id='93'> +5.0303137e+02 </wgt>
<wgt id='94'> +4.8700792e+02 </wgt>
<wgt id='95'> +5.0090819e+02 </wgt>
<wgt id='96'> +5.4227693e+02 </wgt>
<wgt id='97'> +4.9528867e+02 </wgt>
<wgt id='98'> +4.9719358e+02 </wgt>
<wgt id='99'> +4.7232254e+02 </wgt>
<wgt id='100'> +4.6044799e+02 </wgt>
<wgt id='101'> +5.6292703e+02 </wgt>
<wgt id='102'> +5.2467464e+02 </wgt>
<wgt id='103'> +5.4049410e+02 </wgt>
<wgt id='104'> +5.1302209e+02 </wgt>
<wgt id='105'> +5.2077952e+02 </wgt>
<wgt id='106'> +4.5984235e+02 </wgt>
<wgt id='107'> +4.7932932e+02 </wgt>
<wgt id='108'> +4.4486469e+02 </wgt>
<wgt id='109'> +4.7608738e+02 </wgt>
<wgt id='110'> +4.9666303e+02 </wgt>
<wgt id='111'> +4.9064593e+02 </wgt>
<wgt id='112'> +4.8166744e+02 </wgt>
<wgt id='113'> +4.7059938e+02 </wgt>
<wgt id='114'> +4.9695490e+02 </wgt>
<wgt id='115'> +4.7716481e+02 </wgt>
<wgt id='116'> +5.2664735e+02 </wgt>
<wgt id='117'> +4.9868793e+02 </wgt>
<wgt id='118'> +5.3063010e+02 </wgt>
<wgt id='119'> +4.9718634e+02 </wgt>
<wgt id='120'> +4.9549550e+02 </wgt>
<wgt id='121'> +4.9555234e+02 </wgt>
<wgt id='122'> +4.9851216e+02 </wgt>
<wgt id='123'> +5.0708307e+02 </wgt>
<wgt id='124'> +5.6275637e+02 </wgt>
<wgt id='125'> +5.7194531e+02 </wgt>
<wgt id='126'> +5.1917496e+02 </wgt>
<wgt id='127'> +5.1581730e+02 </wgt>
<wgt id='128'> +4.5953987e+02 </wgt>
<wgt id='129'> +5.6395501e+02 </wgt>
<wgt id='130'> +4.9974304e+02 </wgt>
<wgt id='131'> +5.2161617e+02 </wgt>
<wgt id='132'> +5.3231035e+02 </wgt>
<wgt id='133'> +5.2261059e+02 </wgt>
<wgt id='134'> +4.9294262e+02 </wgt>
<wgt id='135'> +5.0941293e+02 </wgt>
<wgt id='136'> +5.2778304e+02 </wgt>
<wgt id='137'> +4.8656221e+02 </wgt>
<wgt id='138'> +4.7808756e+02 </wgt>
<wgt id='139'> +5.2078398e+02 </wgt>
<wgt id='140'> +5.1757908e+02 </wgt>
<wgt id='141'> +5.1855811e+02 </wgt>
<wgt id='142'> +4.6543151e+02 </wgt>
<wgt id='143'> +5.1489516e+02 </wgt>
<wgt id='144'> +4.8984721e+02 </wgt>
<wgt id='145'> +4.9727264e+02 </wgt>
</rwgt>
</event>
<event>
 4      1 +5.0481800e+02 2.36179900e+02 7.54677100e-03 1.12236400e-01
        2 -1    0    0  502    0 +0.0000000000e+00 +0.0000000000e+00 +1.1159527986e+03 1.1159527986e+03 0.0000000000e+00 0.0000e+00 1.0000e+00
       -2 -1    0    0    0  501 -0.0000000000e+00 -0.0000000000e+00 -5.2880975885e+01 5.2880975885e+01 0.0000000000e+00 0.0000e+00 -1.0000e+00
        6  1    1    2  502    0 -1.6035184800e+02 +1.1800361914e+01 +6.6829816838e+02 7.0880420820e+02 1.7300000000e+02 0.0000e+00 1.0000e+00
       -6  1    1    2    0  501 +1.6035184800e+02 -1.1800361914e+01 +3.9477365431e+02 4.6002956627e+02 1.7300000000e+02 0.0000e+00 -1.0000e+00
<mgrwt>
<rscale>  2 0.23617994E+03</rscale>
<asrwt>0</asrwt>
<pdfrwt beam="1">  1        2 0.17168503E+00 0.23617994E+03</pdfrwt>
<pdfrwt beam="2">  1       -2 0.81355356E-02 0.23617994E+03</pdfrwt>
<totfact> 0.20565391E+03</totfact>
</mgrwt>
<rwgt>
<wgt id='1'> +6.0879333e+02 </wgt>
<wgt id='2'> +5.4928549e+02 </wgt>
<wgt id='3'> +5.0481800e+02 </wgt>
<wgt id='4'> +6.0879333e+02 </wgt>
<wgt id='5'> +5.0130706e+02 </wgt>
<wgt id='6'> +6.1266186e+02 </wgt>
<wgt id='7'> +5.5096709e+02 </wgt>
<wgt id='8'> +5.0500783e+02 </wgt>
<wgt id='9'> +6.1266186e+02 </wgt>
<wgt id='10'> +5.0138930e+02 </wgt>
<wgt id='11'> +6.1289224e+02 </wgt>
<wgt id='12'> +5.4977211e+02 </wgt>
<wgt id='13'> +5.0289590e+02 </wgt>
<wgt id='14'> +6.1289224e+02 </wgt>
<wgt id='15'> +4.9921260e+02 </wgt>
<wgt id='16'> +5.0163043e+02 </wgt>
<wgt id='17'> +4.6058577e+02 </wgt>
<wgt id='18'> +4.2682264e+02 </wgt>
<wgt id='19'> +5.0163043e+02 </wgt>
<wgt id='20'> +4.2409635e+02 </wgt>
<wgt id='21'> +4.6199582e+02 </wgt>
<wgt id='22'> +4.2698314e+02 </wgt>
<wgt id='23'> +5.0481800e+02 </wgt>
<wgt id='24'> +4.2416593e+02 </wgt>
<wgt id='25'> +5.0500783e+02 </wgt>
<wgt id='26'> +4.6099381e+02 </wgt>
<wgt id='27'> +4.2519750e+02 </wgt>
<wgt id='28'> +5.0500783e+02 </wgt>
<wgt id='29'> +4.2232448e+02 </wgt>
<wgt id='30'> +4.2412756e+02 </wgt>
<wgt id='31'> +3.9218094e+02 </wgt>
<wgt id='32'> +3.6559720e+02 </wgt>
<wgt id='33'> +4.2412756e+02 </wgt>
<wgt id='34'> +3.6343905e+02 </wgt>
<wgt id='35'> +4.2682264e+02 </wgt>
<wgt id='36'> +3.9338157e+02 </wgt>
<wgt id='37'> +3.6573468e+02 </wgt>
<wgt id='38'> +4.2682264e+02 </wgt>
<wgt id='39'> +3.6349868e+02 </wgt>
<wgt id='40'> +4.2698314e+02 </wgt>
<wgt id='41'> +3.9252837e+02 </wgt>
<wgt id='42'> +3.6420518e+02 </wgt>
<wgt id='43'> +4.2698314e+02 </wgt>
<wgt id='44'> +3.6192061e+02 </wgt>
<wgt id='45'> +5.0481800e+02 </wgt>
<wgt id='46'> +5.0618210e+02 </wgt>
<wgt id='47'> +4.8915900e+02 </wgt>
<wgt id='48'> +4.9483841e+02 </wgt>
<wgt id='49'> +4.9803659e+02 </wgt>
<wgt id='50'> +4.5804852e+02 </wgt>
<wgt id='51'> +5.1011107e+02 </wgt>
<wgt id='52'> +4.9745615e+02 </wgt>
<wgt id='53'> +5.2024050e+02 </wgt>
<wgt id='54'> +4.9466144e+02 </wgt>
<wgt id='55'> +4.8335785e+02 </wgt>
<wgt id='56'> +5.4352926e+02 </wgt>
<wgt id='57'> +4.9202682e+02 </wgt>
<wgt id='58'> +5.2473585e+02 </wgt>
<wgt id='59'> +4.6968376e+02 </wgt>
<wgt id='60'> +5.0685172e+02 </wgt>
<wgt id='61'> +5.5882842e+02 </wgt>
<wgt id='62'> +5.2379424e+02 </wgt>
<wgt id='63'> +5.0761012e+02 </wgt>
<wgt id='64'> +5.0069255e+02 </wgt>
<wgt id='65'> +5.0008085e+02 </wgt>
<wgt id='66'> +5.1970921e+02 </wgt>
<wgt id='67'> +5.1346455e+02 </wgt>
<wgt id='68'> +4.2299659e+02 </wgt>
<wgt id='69'> +4.7412474e+02 </wgt>
<wgt id='70'> +4.9061636e+02 </wgt>
<wgt id='71'> +5.1672061e+02 </wgt>
<wgt id='72'> +5.2820182e+02 </wgt>
<wgt id='73'> +5.2062997e+02 </wgt>
<wgt id='74'> +4.4986305e+02 </wgt>
<wgt id='75'> +4.7775913e+02 </wgt>
<wgt id='76'> +5.2765157e+02 </wgt>
<wgt id='77'> +5.2396875e+02 </wgt>
<wgt id='78'> +5.3724620e+02 </wgt>
<wgt id='79'> +5.0922846e+02 </wgt>
<wgt id='80'> +5.5220102e+02 </wgt>
<wgt id='81'> +5.1109245e+02 </wgt>
<wgt id='82'> +5.0397925e+02 </wgt>
<wgt id='83'> +4.9136743e+02 </wgt>
<wgt id='84'> +5.0360964e+02 </wgt>
<wgt id='85'> +5.0446023e+02 </wgt>
<wgt id='86'> +4.9744360e+02 </wgt>
<wgt id='87'> +5.0990718e+02 </wgt>
<wgt id='88'> +5.0912365e+02 </wgt>
<wgt id='89'> +5.1263652e+02 </wgt>
<wgt id='90'> +5.4328850e+02 </wgt>
<wgt id='91'> +4.7838742e+02 </wgt>
<wgt id='92'> +5.4251257e+02 </wgt>
<wgt id='93'> +4.9155132e+02 </wgt>
<wgt id='94'> +5.1058322e+02 </wgt>
<wgt id='95'> +5.0066078e+02 </wgt>
<wgt id='96'> +4.8925119e+02 </wgt>
<wgt id='97'> +5.2770007e+02 </wgt>
<wgt id='98'> +5.1352081e+02 </wgt>
<wgt id='99'> +5.3301229e+02 </wgt>
<wgt id='100'> +5.5153212e+02 </wgt>
<wgt id='101'> +4.3397276e+02 </wgt>
<wgt id='102'> +4.6759123e+02 </wgt>
<wgt id='103'> +4.8387176e+02 </wgt>
<wgt id='104'> +4.8695620e+02 </wgt>
<wgt id='105'> +5.0329506e+02 </wgt>
<wgt id='106'> +5.4444802e+02 </wgt>
<wgt id='107'> +5.0254506e+02 </wgt>
<wgt id='108'> +5.6778766e+02 </wgt>
<wgt id='109'> +5.2733852e+02 </wgt>
<wgt id='110'> +5.2610911e+02 </wgt>
<wgt id='111'> +5.3273114e+02 </wgt>
<wgt id='112'> +5.2055263e+02 </wgt>
<wgt id='113'> +5.0737868e+02 </wgt>
<wgt id='114'> +5.0866875e+02 </wgt>
<wgt id='115'> +5.3752490e+02 </wgt>
<wgt id='116'> +4.7319774e+02 </wgt>
<wgt id='117'> +5.0711858e+02 </wgt>
<wgt id='118'> +4.7119848e+02 </wgt>
<wgt id='119'> +5.0490354e+02 </wgt>
<wgt id='120'> +5.0796970e+02 </wgt>
<wgt id='121'> +5.0558081e+02 </wgt>
<wgt id='122'> +5.2157852e+02 </wgt>
<wgt id='123'> +5.4333257e+02 </wgt>
<wgt id='124'> +4.6308518e+02 </wgt>
<wgt id='125'> +4.3137490e+02 </wgt>
<wgt id='126'> +5.0181968e+02 </wgt>
<wgt id='127'> +4.9556124e+02 </wgt>
<wgt id='128'> +5.1758684e+02 </wgt>
<wgt id='129'> +4.6823284e+02 </wgt>
<wgt id='130'> +4.9766973e+02 </wgt>
<wgt id='131'> +4.9895646e+02 </wgt>
<wgt id='132'> +4.6877296e+02 </wgt>
<wgt id='133'> +4.8816922e+02 </wgt>
<wgt id='134'> +4.9545543e+02 </wgt>
<wgt id='135'> +4.9398681e+02 </wgt>
<wgt id='136'> +4.7799154e+02 </wgt>
<wgt id='137'> +5.2308369e+02 </wgt>
<wgt id='138'> +5.1749929e+02 </wgt>
<wgt id='139'> +4.9406532e+02 </wgt>
<wgt id='140'> +4.9660148e+02 </wgt>
<wgt id='141'> +4.7698099e+02 </wgt>
<wgt id='142'> +5.6523783e+02 </wgt>
<wgt id='143'> +5.1946281e+02 </wgt>
<wgt id='144'> +5.4168889e+02 </wgt>
<wgt id='145'> +5.2220810e+02 </wgt>
</rwgt>
</event>
<event>
 4      1 +5.0481800e+02 2.04391700e+02 7.54677100e-03 1.14608600e-01
       21 -1    0    0  503  502 +0.0000000000e+00 +0.0000000000e+00 +1.0805384446e+02 1.0805384446e+02 0.0000000000e+00 0.0000e+00 1.0000e+00
       21 -1    0    0  501  503 -0.0000000000e+00 -0.0000000000e+00 -3.8664051023e+02 3.8664051023e+02 0.0000000000e+00 0.0000e+00 -1.0000e+00
        6  1    1    2  501    0 +1.0834001997e+02 -1.0460632302e+01 -1.3757818503e+02 2.4638129343e+02 1.7300000000e+02 0.0000e+00 -1.0000e+00
       -6  1    1    2    0  502 -1.0834001997e+02 +1.0460632302e+01 -1.4100848074e+02 2.4831306127e+02 1.7300000000e+02 0.0000e+00 -1.0000e+00
<mgrwt>
<rscale>  2 0.20439174E+03</rscale>
<asrwt>0</asrwt>
<pdfrwt beam="1">  1       21 0.16623668E-01 0.20439174E+03</pdfrwt>
<pdfrwt beam="2">  1       21 0.59483155E-01 0.20439174E+03</pdfrwt>
<totfact> 0.85382542E+04</totfact>
</mgrwt>
<rwgt>
<wgt id='1'> +6.4539607e+02 </wgt>
<wgt id='2'> +5.5926185e+02 </wgt>
<wgt id='3'> +5.0481800e+02 </wgt>
<wgt id='4'> +6.4539606e+02 </wgt>
<wgt id='5'> +5.0481383e+02 </wgt>
<wgt id='6'> +6.1755751e+02 </wgt>
<wgt id='7'> +5.2845163e+02 </wgt>
<wgt id='8'> +4.7499399e+02 </wgt>
<wgt id='9'> +6.1755751e+02 </wgt>
<wgt id='10'> +4.7499004e+02 </wgt>
<wgt id='11'> +5.8107300e+02 </wgt>
<wgt id='12'> +4.9703262e+02 </wgt>
<wgt id='13'> +4.4666958e+02 </wgt>
<wgt id='14'> +5.8107299e+02 </wgt>
<wgt id='15'> +4.4666586e+02 </wgt>
<wgt id='16'> +5.2757443e+02 </wgt>
<wgt id='17'> +4.6683900e+02 </wgt>
<wgt id='18'> +4.2562089e+02 </wgt>
<wgt id='19'> +5.2757443e+02 </wgt>
<wgt id='20'> +4.2561759e+02 </wgt>
<wgt id='21'> +4.4112044e+02 </wgt>
<wgt id='22'> +4.0047574e+02 </wgt>
<wgt id='23'> +5.0481800e+02 </wgt>
<wgt id='24'> +4.0047262e+02 </wgt>
<wgt id='25'> +4.7499399e+02 </wgt>
<wgt id='26'> +4.1489370e+02 </wgt>
<wgt id='27'> +3.7659494e+02 </wgt>
<wgt id='28'> +4.7499399e+02 </wgt>
<wgt id='29'> +3.7659199e+02 </wgt>
<wgt id='30'> +4.4480723e+02 </wgt>
<wgt id='31'> +3.9669501e+02 </wgt>
<wgt id='32'> +3.6364352e+02 </wgt>
<wgt id='33'> +4.4480723e+02 </wgt>
<wgt id='34'> +3.6364086e+02 </wgt>
<wgt id='35'> +4.2562089e+02 </wgt>
<wgt id='36'> +3.7484074e+02 </wgt>
<wgt id='37'> +3.4215992e+02 </wgt>
<wgt id='38'> +4.2562089e+02 </wgt>
<wgt id='39'> +3.4215740e+02 </wgt>
<wgt id='40'> +4.0047575e+02 </wgt>
<wgt id='41'> +3.5255465e+02 </wgt>
<wgt id='42'> +3.2175655e+02 </wgt>
<wgt id='43'> +4.0047574e+02 </wgt>
<wgt id='44'> +3.2175417e+02 </wgt>
<wgt id='45'> +5.0481800e+02 </wgt>
<wgt id='46'> +5.0617389e+02 </wgt>
<wgt id='47'> +5.2107905e+02 </wgt>
<wgt id='48'> +5.0618558e+02 </wgt>
<wgt id='49'> +5.0278952e+02 </wgt>
<wgt id='50'> +5.8609538e+02 </wgt>
<wgt id='51'> +4.9499728e+02 </wgt>
<wgt id='52'> +5.0275249e+02 </wgt>
<wgt id='53'> +5.0829099e+02 </wgt>
<wgt id='54'> +5.0815478e+02 </wgt>
<wgt id='55'> +4.5786689e+02 </wgt>
<wgt id='56'> +4.6960170e+02 </wgt>
<wgt id='57'> +4.9471869e+02 </wgt>
<wgt id='58'> +5.0690339e+02 </wgt>
<wgt id='59'> +5.0222456e+02 </wgt>
<wgt id='60'> +4.8871544e+02 </wgt>
<wgt id='61'> +4.8435300e+02 </wgt>
<wgt id='62'> +4.9783379e+02 </wgt>
<wgt id='63'> +5.0537856e+02 </wgt>
<wgt id='64'> +4.9942231e+02 </wgt>
<wgt id='65'> +5.8558424e+02 </wgt>
<wgt id='66'> +4.9352277e+02 </wgt>
<wgt id='67'> +5.0905903e+02 </wgt>
<wgt id='68'> +5.4193798e+02 </wgt>
<wgt id='69'> +4.9315986e+02 </wgt>
<wgt id='70'> +4.9716148e+02 </wgt>
<wgt id='71'> +5.1378653e+02 </wgt>
<wgt id='72'> +4.9232521e+02 </wgt>
<wgt id='73'> +4.9749732e+02 </wgt>
<wgt id='74'> +5.2101825e+02 </wgt>
<wgt id='75'> +5.1519942e+02 </wgt>
<wgt id='76'> +4.9241789e+02 </wgt>
<wgt id='77'> +4.8838407e+02 </wgt>
<wgt id='78'> +5.0171557e+02 </wgt>
<wgt id='79'> +4.8718487e+02 </wgt>
<wgt id='80'> +4.9942891e+02 </wgt>
<wgt id='81'> +4.9610194e+02 </wgt>
<wgt id='82'> +5.1462900e+02 </wgt>
<wgt id='83'> +5.1332242e+02 </wgt>
<wgt id='84'> +5.4998854e+02 </wgt>
<wgt id='85'> +5.2719875e+02 </wgt>
<wgt id='86'> +5.0190665e+02 </wgt>
<wgt id='87'> +5.0531360e+02 </wgt>
<wgt id='88'> +5.1144150e+02 </wgt>
<wgt id='89'> +5.1563949e+02 </wgt>
<wgt id='90'> +5.1153553e+02 </wgt>
<wgt id='91'> +5.3302176e+02 </wgt>
<wgt id='92'> +4.6718719e+02 </wgt>
<wgt id='93'> +4.9711455e+02 </wgt>
<wgt id='94'> +5.0113985e+02 </wgt>
<wgt id='95'> +4.8779167e+02 </wgt>
<wgt id='96'> +5.4202430e+02 </wgt>
<wgt id='97'> +5.1054810e+02 </wgt>
<wgt id='98'> +4.8417305e+02 </wgt>
<wgt id='99'> +4.8920521e+02 </wgt>
<wgt id='100'> +4.9750096e+02 </wgt>
<wgt id='101'> +5.3294130e+02 </wgt>
<wgt id='102'> +4.9442419e+02 </wgt>
<wgt id='103'> +5.4576430e+02 </wgt>
<wgt id='104'> +5.0397568e+02 </wgt>
<wgt id='105'> +5.2435684e+02 </wgt>
<wgt id='106'> +4.6622772e+02 </wgt>
<wgt id='107'> +4.9691246e+02 </wgt>
<wgt id='108'> +4.5358075e+02 </wgt>
<wgt id='109'> +4.7593335e+02 </wgt>
<wgt id='110'> +5.0545068e+02 </wgt>
<wgt id='111'> +4.9228491e+02 </wgt>
<wgt id='112'> +4.8171128e+02 </wgt>
<wgt id='113'> +4.6592624e+02 </wgt>
<wgt id='114'> +5.0236355e+02 </wgt>
<wgt id='115'> +5.0046264e+02 </wgt>
<wgt id='116'> +5.0606543e+02 </wgt>
<wgt id='117'> +5.0893792e+02 </wgt>
<wgt id='118'> +5.1822904e+02 </wgt>
<wgt id='119'> +4.8744818e+02 </wgt>
<wgt id='120'> +4.9964092e+02 </wgt>
<wgt id='121'> +4.9244971e+02 </wgt>
<wgt id='122'> +4.9890223e+02 </wgt>
<wgt id='123'> +5.0982016e+02 </wgt>
<wgt id='124'> +5.4015575e+02 </wgt>
<wgt id='125'> +5.4196207e+02 </wgt>
<wgt id='126'> +5.2223104e+02 </wgt>
<wgt id='127'> +5.1869103e+02 </wgt>
<wgt id='128'> +4.6772533e+02 </wgt>
<wgt id='129'> +5.6851248e+02 </wgt>
<wgt id='130'> +5.0601960e+02 </wgt>
<wgt id='131'> +5.3724195e+02 </wgt>
<wgt id='132'> +5.0527087e+02 </wgt>
<wgt id='133'> +5.0364801e+02 </wgt>
<wgt id='134'> +4.7881033e+02 </wgt>
<wgt id='135'> +5.1647547e+02 </wgt>
<wgt id='136'> +4.9096414e+02 </wgt>
<wgt id='137'> +4.7696121e+02 </wgt>
<wgt id='138'> +4.6112880e+02 </wgt>
<wgt id='139'> +5.1498025e+02 </wgt>
<wgt id='140'> +5.3296570e+02 </wgt>
<wgt id='141'> +5.0494967e+02 </wgt>
<wgt id='142'> +5.0330770e+02 </wgt>
<wgt id='143'> +5.0352024e+02 </wgt>
<wgt id='144'> +5.0390299e+02 </wgt>
<wgt id='145'> +5.0549848e+02 </wgt>
</rwgt>
</event>
<event>
 4      1 +5.0481800e+02 1.74052100e+02 7.54677100e-03 1.17368700e-01
       21 -1    0    0  503  502 +0.0000000000e+00 +0.0000000000e+00 +9.7246228710e+01 9.7246228710e+01 0.0000000000e+00 0.0000e+00 -1.0000e+00
       21 -1    0    0  501  503 -0.0000000000e+00 -0.0000000000e+00 -3.1620464967e+02 3.1620464967e+02 0.0000000000e+00 0.0000e+00 -1.0000e+00
        6  1    1    2  501    0 +3.0118223150e+00 +1.8869461949e+01 -1.3464187910e+02 2.2005127420e+02 1.7300000000e+02 0.0000e+00 1.0000e+00
       -6  1    1    2    0  502 -3.0118223150e+00 -1.8869461949e+01 -8.4316541866e+01 1.9339960419e+02 1.7300000000e+02 0.0000e+00 1.0000e+00
<mgrwt>
<rscale>  2 0.17405208E+03</rscale>
<asrwt>0</asrwt>
<pdfrwt beam="1">  1       21 0.14960958E-01 0.17405208E+03</pdfrwt>
<pdfrwt beam="2">  1       21 0.48646869E-01 0.17405208E+03</pdfrwt>
<totfact> 0.15996143E+05</totfact>
</mgrwt>
<rwgt>
<wgt id='1'> +6.4012984e+02 </wgt>
<wgt id='2'> +8.7569726e+02 </wgt>
<wgt id='3'> +5.0481800e+02 </wgt>
<wgt id='4'> +6.4012984e+02 </wgt>
<wgt id='5'> +5.0356720e+02 </wgt>
<wgt id='6'> +6.2242657e+02 </wgt>
<wgt id='7'> +8.6463081e+02 </wgt>
<wgt id='8'> +4.8063777e+02 </wgt>
<wgt id='9'> +6.2242657e+02 </wgt>
<wgt id='10'> +4.7938863e+02 </wgt>
<wgt id='11'> +5.9261302e+02 </wgt>
<wgt id='12'> +8.4335615e+02 </wgt>
<wgt id='13'> +4.5623201e+02 </wgt>
<wgt id='14'> +5.9261302e+02 </wgt>
<wgt id='15'> +4.5503938e+02 </wgt>
<wgt id='16'> +5.1917620e+02 </wgt>
<wgt id='17'> +6.8773120e+02 </wgt>
<wgt id='18'> +4.2368010e+02 </wgt>
<wgt id='19'> +5.1917620e+02 </wgt>
<wgt id='20'> +4.2273740e+02 </wgt>
<wgt id='21'> +6.7904013e+02 </wgt>
<wgt id='22'> +4.0338629e+02 </wgt>
<wgt id='23'> +5.0481800e+02 </wgt>
<wgt id='24'> +4.0243984e+02 </wgt>
<wgt id='25'> +4.8063777e+02 </wgt>
<wgt id='26'> +6.6233202e+02 </wgt>
<wgt id='27'> +3.8290319e+02 </wgt>
<wgt id='28'> +4.8063777e+02 </wgt>
<wgt id='29'> +3.8199899e+02 </wgt>
<wgt id='30'> +4.3573055e+02 </wgt>
<wgt id='31'> +5.5427960e+02 </wgt>
<wgt id='32'> +3.6092872e+02 </wgt>
<wgt id='33'> +4.3573055e+02 </wgt>
<wgt id='34'> +3.6017549e+02 </wgt>
<wgt id='35'> +4.2368010e+02 </wgt>
<wgt id='36'> +5.4727499e+02 </wgt>
<wgt id='37'> +3.4364063e+02 </wgt>
<wgt id='38'> +4.2368010e+02 </wgt>
<wgt id='39'> +3.4288181e+02 </wgt>
<wgt id='40'> +4.0338629e+02 </wgt>
<wgt id='41'> +5.3380903e+02 </wgt>
<wgt id='42'> +3.2619129e+02 </wgt>
<wgt id='43'> +4.0338629e+02 </wgt>
<wgt id='44'> +3.2546606e+02 </wgt>
<wgt id='45'> +5.0481800e+02 </wgt>
<wgt id='46'> +5.0177488e+02 </wgt>
<wgt id='47'> +5.1894700e+02 </wgt>
<wgt id='48'> +5.0367622e+02 </wgt>
<wgt id='49'> +5.0391893e+02 </wgt>
<wgt id='50'> +5.7468545e+02 </wgt>
<wgt id='51'> +4.9532727e+02 </wgt>
<wgt id='52'> +5.0196396e+02 </wgt>
<wgt id='53'> +5.1188368e+02 </wgt>
<wgt id='54'> +5.0756663e+02 </wgt>
<wgt id='55'> +4.5633287e+02 </wgt>
<wgt id='56'> +4.7449961e+02 </wgt>
<wgt id='57'> +4.9341043e+02 </wgt>
<wgt id='58'> +5.1182312e+02 </wgt>
<wgt id='59'> +4.9639755e+02 </wgt>
<wgt id='60'> +4.8419150e+02 </wgt>
<wgt id='61'> +4.9633496e+02 </wgt>
<wgt id='62'> +4.9753480e+02 </wgt>
<wgt id='63'> +5.0524536e+02 </wgt>
<wgt id='64'> +5.0318736e+02 </wgt>
<wgt id='65'> +5.8799309e+02 </wgt>
<wgt id='66'> +4.9245925e+02 </wgt>
<wgt id='67'> +5.0921505e+02 </wgt>
<wgt id='68'> +5.3610995e+02 </wgt>
<wgt id='69'> +4.8741765e+02 </wgt>
<wgt id='70'> +4.9775350e+02 </wgt>
<wgt id='71'> +5.1442628e+02 </wgt>
<wgt id='72'> +4.9957523e+02 </wgt>
<wgt id='73'> +5.0038627e+02 </wgt>
<wgt id='74'> +5.1583280e+02 </wgt>
<wgt id='75'> +5.1391528e+02 </wgt>
<wgt id='76'> +4.9257096e+02 </wgt>
<wgt id='77'> +4.8567944e+02 </wgt>
<wgt id='78'> +5.0780088e+02 </wgt>
<wgt id='79'> +4.8381151e+02 </wgt>
<wgt id='80'> +5.0188680e+02 </wgt>
<wgt id='81'> +4.9758445e+02 </wgt>
<wgt id='82'> +5.1871770e+02 </wgt>
<wgt id='83'> +5.1159799e+02 </wgt>
<wgt id='84'> +5.4866326e+02 </wgt>
<wgt id='85'> +5.2879095e+02 </wgt>
<wgt id='86'> +4.9906753e+02 </wgt>
<wgt id='87'> +5.0379547e+02 </wgt>
<wgt id='88'> +5.1066449e+02 </wgt>
<wgt id='89'> +5.1482473e+02 </wgt>
<wgt id='90'> +5.1004028e+02 </wgt>
<wgt id='91'> +5.3591994e+02 </wgt>
<wgt id='92'> +4.7430020e+02 </wgt>
<wgt id='93'> +4.9464891e+02 </wgt>
<wgt id='94'> +5.0490678e+02 </wgt>
<wgt id='95'> +4.8804099e+02 </wgt>
<wgt id='96'> +5.3755803e+02 </wgt>
<wgt id='97'> +5.1392647e+02 </wgt>
<wgt id='98'> +4.8213479e+02 </wgt>
<wgt id='99'> +4.9216329e+02 </wgt>
<wgt id='100'> +5.0687923e+02 </wgt>
<wgt id='101'> +5.2333679e+02 </wgt>
<wgt id='102'> +4.8571601e+02 </wgt>
<wgt id='103'> +5.4330679e+02 </wgt>
<wgt id='104'> +5.0130728e+02 </wgt>
<wgt id='105'> +5.2719971e+02 </wgt>
<wgt id='106'> +4.7255693e+02 </wgt>
<wgt id='107'> +5.0465811e+02 </wgt>
<wgt id='108'> +4.6002599e+02 </wgt>
<wgt id='109'> +4.7952269e+02 </wgt>
<wgt id='110'> +5.0749563e+02 </wgt>
<wgt id='111'> +4.9437966e+02 </wgt>
<wgt id='112'> +4.8538971e+02 </wgt>
<wgt id='113'> +4.6836176e+02 </wgt>
<wgt id='114'> +5.0893673e+02 </wgt>
<wgt id='115'> +5.0863810e+02 </wgt>
<wgt id='116'> +4.9907150e+02 </wgt>
<wgt id='117'> +5.1203560e+02 </wgt>
<wgt id='118'> +5.1240670e+02 </wgt>
<wgt id='119'> +4.8854629e+02 </wgt>
<wgt id='120'> +5.0403775e+02 </wgt>
<wgt id='121'> +4.9411833e+02 </wgt>
<wgt id='122'> +4.9947674e+02 </wgt>
<wgt id='123'> +5.0860577e+02 </wgt>
<wgt id='124'> +5.3217943e+02 </wgt>
<wgt id='125'> +5.3413810e+02 </wgt>
<wgt id='126'> +5.2029520e+02 </wgt>
<wgt id='127'> +5.1709554e+02 </wgt>
<wgt id='128'> +4.7170815e+02 </wgt>
<wgt id='129'> +5.6713484e+02 </wgt>
<wgt id='130'> +5.0555404e+02 </wgt>
<wgt id='131'> +5.3899691e+02 </wgt>
<wgt id='132'> +4.9893517e+02 </wgt>
<wgt id='133'> +4.9819428e+02 </wgt>
<wgt id='134'> +4.7663854e+02 </wgt>
<wgt id='135'> +5.1722169e+02 </wgt>
<wgt id='136'> +4.8472348e+02 </wgt>
<wgt id='137'> +4.7447125e+02 </wgt>
<wgt id='138'> +4.5504816e+02 </wgt>
<wgt id='139'> +5.1262061e+02 </wgt>
<wgt id='140'> +5.3675122e+02 </wgt>
<wgt id='141'> +5.0260833e+02 </wgt>
<wgt id='142'> +5.1176306e+02 </wgt>
<wgt id='143'> +5.0036948e+02 </wgt>
<wgt id='144'> +5.0789280e+02 </wgt>
<wgt id='145'> +5.0574567e+02 </wgt>
</rwgt>
</event>
<event>
 4      1 +5.0481800e+02 2.79966100e+02 7.54677100e-03 1.09570700e-01
       21 -1    0    0  503  502 +0.0000000000e+00 +0.0000000000e+00 +1.7933568624e+02 1.7933568624e+02 0.0000000000e+00 0.0000e+00 -1.0000e+00
       21 -1    0    0  501  503 -0.0000000000e+00 -0.0000000000e+00 -7.2921789301e+02 7.2921789301e+02 0.0000000000e+00 0.0000e+00 1.0000e+00
        6  1    1    2  501    0 +1.4767697453e+02 +1.6322843087e+02 -5.6248119304e+02 6.2830414766e+02 1.7300000000e+02 0.0000e+00 1.0000e+00
       -6  1    1    2    0  502 -1.4767697453e+02 -1.6322843087e+02 +1.2598986273e+01 2.8024943159e+02 1.7300000000e+02 0.0000e+00 -1.0000e+00
<mgrwt>
<rscale>  2 0.27996609E+03</rscale>
<asrwt>0</asrwt>
<pdfrwt beam="1">  1       21 0.27590106E-01 0.27996609E+03</pdfrwt>
<pdfrwt beam="2">  1       21 0.11218737E+00 0.27996609E+03</pdfrwt>
<totfact> 0.73824611E+03</totfact>
</mgrwt>
<rwgt>
<wgt id='1'> +6.7015683e+02 </wgt>
<wgt id='2'> +5.2440442e+02 </wgt>
<wgt id='3'> +5.0481800e+02 </wgt>
<wgt id='4'> +6.7015684e+02 </wgt>
<wgt id='5'> +4.5676861e+02 </wgt>
<wgt id='6'> +6.0732928e+02 </wgt>
<wgt id='7'> +4.7376103e+02 </wgt>
<wgt id='8'> +4.5626704e+02 </wgt>
<wgt id='9'> +6.0732928e+02 </wgt>
<wgt id='10'> +4.1333920e+02 </wgt>
<wgt id='11'> +5.4891928e+02 </wgt>
<wgt id='12'> +4.2943597e+02 </wgt>
<wgt id='13'> +4.1377684e+02 </wgt>
<wgt id='14'> +5.4891928e+02 </wgt>
<wgt id='15'> +3.7533274e+02 </wgt>
<wgt id='16'> +5.5704088e+02 </wgt>
<wgt id='17'> +4.4404464e+02 </wgt>
<wgt id='18'> +4.2826988e+02 </wgt>
<wgt id='19'> +5.5704088e+02 </wgt>
<wgt id='20'> +3.8938956e+02 </wgt>
<wgt id='21'> +4.0116185e+02 </wgt>
<wgt id='22'> +3.8708095e+02 </wgt>
<wgt id='23'> +5.0481800e+02 </wgt>
<wgt id='24'> +3.5236654e+02 </wgt>
<wgt id='25'> +4.5626704e+02 </wgt>
<wgt id='26'> +3.6362916e+02 </wgt>
<wgt id='27'> +3.5103375e+02 </wgt>
<wgt id='28'> +4.5626704e+02 </wgt>
<wgt id='29'> +3.1996649e+02 </wgt>
<wgt id='30'> +4.7257393e+02 </wgt>
<wgt id='31'> +3.8083579e+02 </wgt>
<wgt id='32'> +3.6789776e+02 </wgt>
<wgt id='33'> +4.7257393e+02 </wgt>
<wgt id='34'> +3.3589018e+02 </wgt>
<wgt id='35'> +4.2826988e+02 </wgt>
<wgt id='36'> +3.4405728e+02 </wgt>
<wgt id='37'> +3.3251513e+02 </wgt>
<wgt id='38'> +4.2826988e+02 </wgt>
<wgt id='39'> +3.0395386e+02 </wgt>
<wgt id='40'> +3.8708095e+02 </wgt>
<wgt id='41'> +3.1186729e+02 </wgt>
<wgt id='42'> +3.0154941e+02 </wgt>
<wgt id='43'> +3.8708095e+02 </wgt>
<wgt id='44'> +2.7600535e+02 </wgt>
<wgt id='45'> +5.0481800e+02 </wgt>
<wgt id='46'> +5.2143347e+02 </wgt>
<wgt id='47'> +5.2578058e+02 </wgt>
<wgt id='48'> +5.1157528e+02 </wgt>
<wgt id='49'> +4.9171625e+02 </wgt>
<wgt id='50'> +6.2225911e+02 </wgt>
<wgt id='51'> +4.8951585e+02 </wgt>
<wgt id='52'> +5.0009864e+02 </wgt>
<wgt id='53'> +4.9723925e+02 </wgt>
<wgt id='54'> +5.1695650e+02 </wgt>
<wgt id='55'> +4.8299578e+02 </wgt>
<wgt id='56'> +4.5694268e+02 </wgt>
<wgt id='57'> +5.0885141e+02 </wgt>
<wgt id='58'> +4.8298971e+02 </wgt>
<wgt id='59'> +5.2996295e+02 </wgt>
<wgt id='60'> +5.0457716e+02 </wgt>
<wgt id='61'> +4.3614702e+02 </wgt>
<wgt id='62'> +4.9214604e+02 </wgt>
<wgt id='63'> +5.1038421e+02 </wgt>
<wgt id='64'> +4.9224673e+02 </wgt>
<wgt id='65'> +5.5606704e+02 </wgt>
<wgt id='66'> +4.9913887e+02 </wgt>
<wgt id='67'> +5.0766736e+02 </wgt>
<wgt id='68'> +5.7008544e+02 </wgt>
<wgt id='69'> +5.1802228e+02 </wgt>
<wgt id='70'> +5.0184376e+02 </wgt>
<wgt id='71'> +5.0440720e+02 </wgt>
<wgt id='72'> +4.7025881e+02 </wgt>
<wgt id='73'> +4.8019987e+02 </wgt>
<wgt id='74'> +5.4567767e+02 </wgt>
<wgt id='75'> +5.2269302e+02 </wgt>
<wgt id='76'> +4.9849363e+02 </wgt>
<wgt id='77'> +4.9434712e+02 </wgt>
<wgt id='78'> +4.7162778e+02 </wgt>
<wgt id='79'> +5.0551297e+02 </wgt>
<wgt id='80'> +4.8314379e+02 </wgt>
<wgt id='81'> +4.9573283e+02 </wgt>
<wgt id='82'> +4.9377079e+02 </wgt>
<wgt id='83'> +5.1406930e+02 </wgt>
<wgt id='84'> +5.4273627e+02 </wgt>
<wgt id='85'> +5.0821385e+02 </wgt>
<wgt id='86'> +5.1418779e+02 </wgt>
<wgt id='87'> +5.0858578e+02 </wgt>
<wgt id='88'> +5.0908715e+02 </wgt>
<wgt id='89'> +5.0259052e+02 </wgt>
<wgt id='90'> +5.0960394e+02 </wgt>
<wgt id='91'> +5.0704676e+02 </wgt>
<wgt id='92'> +4.4930205e+02 </wgt>
<wgt id='93'> +5.0583073e+02 </wgt>
<wgt id='94'> +4.8223872e+02 </wgt>
<wgt id='95'> +4.9880305e+02 </wgt>
<wgt id='96'> +5.4901130e+02 </wgt>
<wgt id='97'> +4.9107173e+02 </wgt>
<wgt id='98'> +5.0054738e+02 </wgt>
<wgt id='99'> +4.6761308e+02 </wgt>
<wgt id='100'> +4.4959163e+02 </wgt>
<wgt id='101'> +5.7304129e+02 </wgt>
<wgt id='102'> +5.3459555e+02 </wgt>
<wgt id='103'> +5.4071726e+02 </wgt>
<wgt id='104'> +5.1843332e+02 </wgt>
<wgt id='105'> +5.1663120e+02 </wgt>
<wgt id='106'> +4.5356340e+02 </wgt>
<wgt id='107'> +4.7262164e+02 </wgt>
<wgt id='108'> +4.3975277e+02 </wgt>
<wgt id='109'> +4.7234993e+02 </wgt>
<wgt id='110'> +4.9240473e+02 </wgt>
<wgt id='111'> +4.8790908e+02 </wgt>
<wgt id='112'> +4.8048541e+02 </wgt>
<wgt id='113'> +4.6970178e+02 </wgt>
<wgt id='114'> +4.9122386e+02 </wgt>
<wgt id='115'> +4.7251411e+02 </wgt>
<wgt id='116'> +5.3553635e+02 </wgt>
<wgt id='117'> +4.9708109e+02 </wgt>
<wgt id='118'> +5.3602331e+02 </wgt>
<wgt id='119'> +4.9675818e+02 </wgt>
<wgt id='120'> +4.9399613e+02 </wgt>
<wgt id='121'> +4.9200901e+02 </wgt>
<wgt id='122'> +4.9703665e+02 </wgt>
<wgt id='123'> +5.0865044e+02 </wgt>
<wgt id='124'> +5.7054299e+02 </wgt>
<wgt id='125'> +5.8191637e+02 </wgt>
<wgt id='126'> +5.2153378e+02 </wgt>
<wgt id='127'> +5.1629283e+02 </wgt>
<wgt id='128'> +4.5905719e+02 </wgt>
<wgt id='129'> +5.6319150e+02 </wgt>
<wgt id='130'> +5.0242436e+02 </wgt>
<wgt id='131'> +5.1832781e+02 </wgt>
<wgt id='132'> +5.3502285e+02 </wgt>
<wgt id='133'> +5.2861412e+02 </wgt>
<wgt id='134'> +4.9487937e+02 </wgt>
<wgt id='135'> +5.0770909e+02 </wgt>
<wgt id='136'> +5.3222076e+02 </wgt>
<wgt id='137'> +4.9189436e+02 </wgt>
<wgt id='138'> +4.8831952e+02 </wgt>
<wgt id='139'> +5.2256442e+02 </wgt>
<wgt id='140'> +5.1394449e+02 </wgt>
<wgt id='141'> +5.2362160e+02 </wgt>
<wgt id='142'> +4.5494540e+02 </wgt>
<wgt id='143'> +5.1596457e+02 </wgt>
<wgt id='144'> +4.8399411e+02 </wgt>
<wgt id='145'> +4.9589670e+02 </wgt>
</rwgt>
</event>
<event>
 4      1 +5.0481800e+02 2.74291500e+02 7.54677100e-03 1.09884800e-01
       21 -1    0    0  501  502 +0.0000000000e+00 +0.0000000000e+00 +2.3182164211e+02 2.3182164211e+02 0.0000000000e+00 0.0000e+00 1.0000e+00
       21 -1    0    0  502  503 -0.0000000000e+00 -0.0000000000e+00 -3.2464764327e+02 3.2464764327e+02 0.0000000000e+00 0.0000e+00 -1.0000e+00
        6  1    1    2  501    0 -1.7525655789e+02 -1.2079721343e+02 -4.1390670482e+01 2.7739685553e+02 1.7300000000e+02 0.0000e+00 1.0000e+00
       -6  1    1    2    0  503 +1.7525655789e+02 +1.2079721343e+02 -5.1435330677e+01 2.7907242984e+02 1.7300000000e+02 0.0000e+00 -1.0000e+00
<mgrwt>
<rscale>  2 0.27429150E+03</rscale>
<asrwt>0</asrwt>
<pdfrwt beam="1">  1       21 0.35664868E-01 0.27429150E+03</pdfrwt>
<pdfrwt beam="2">  1       21 0.49945791E-01 0.27429150E+03</pdfrwt>
<totfact> 0.27829227E+04</totfact>
</mgrwt>
<rwgt>
<wgt id='1'> +6.5297376e+02 </wgt>
<wgt id='2'> +5.0649149e+02 </wgt>
<wgt id='3'> +5.0481800e+02 </wgt>
<wgt id='4'> +6.5297376e+02 </wgt>
<wgt id='5'> +5.0478841e+02 </wgt>
<wgt id='6'> +6.0797269e+02 </wgt>
<wgt id='7'> +4.6891870e+02 </wgt>
<wgt id='8'> +4.6737556e+02 </wgt>
<wgt id='9'> +6.0797269e+02 </wgt>
<wgt id='10'> +4.6734827e+02 </wgt>
<wgt id='11'> +5.6287925e+02 </wgt>
<wgt id='12'> +4.3470490e+02 </wgt>
<wgt id='13'> +4.3328345e+02 </wgt>
<wgt id='14'> +5.6287924e+02 </wgt>
<wgt id='15'> +4.3325832e+02 </wgt>
<wgt id='16'> +5.4218374e+02 </wgt>
<wgt id='17'> +4.2943863e+02 </wgt>
<wgt id='18'> +4.2809731e+02 </wgt>
<wgt id='19'> +5.4218374e+02 </wgt>
<wgt id='20'> +4.2807359e+02 </wgt>
<wgt id='21'> +3.9758182e+02 </wgt>
<wgt id='22'> +3.9634526e+02 </wgt>
<wgt id='23'> +5.0481800e+02 </wgt>
<wgt id='24'> +3.9632339e+02 </wgt>
<wgt id='25'> +4.6737556e+02 </wgt>
<wgt id='26'> +3.6857298e+02 </wgt>
<wgt id='27'> +3.6743436e+02 </wgt>
<wgt id='28'> +4.6737556e+02 </wgt>
<wgt id='29'> +3.6741423e+02 </wgt>
<wgt id='30'> +4.5978432e+02 </wgt>
<wgt id='31'> +3.6871917e+02 </wgt>
<wgt id='32'> +3.6762397e+02 </wgt>
<wgt id='33'> +4.5978432e+02 </wgt>
<wgt id='34'> +3.6760460e+02 </wgt>
<wgt id='35'> +4.2809731e+02 </wgt>
<wgt id='36'> +3.4136667e+02 </wgt>
<wgt id='37'> +3.4035723e+02 </wgt>
<wgt id='38'> +4.2809731e+02 </wgt>
<wgt id='39'> +3.4033938e+02 </wgt>
<wgt id='40'> +3.9634526e+02 </wgt>
<wgt id='41'> +3.1645947e+02 </wgt>
<wgt id='42'> +3.1553031e+02 </wgt>
<wgt id='43'> +3.9634526e+02 </wgt>
<wgt id='44'> +3.1551388e+02 </wgt>
<wgt id='45'> +5.0481800e+02 </wgt>
<wgt id='46'> +5.1059779e+02 </wgt>
<wgt id='47'> +5.2614996e+02 </wgt>
<wgt id='48'> +5.0998660e+02 </wgt>
<wgt id='49'> +5.0299115e+02 </wgt>
<wgt id='50'> +6.0422146e+02 </wgt>
<wgt id='51'> +4.9513001e+02 </wgt>
<wgt id='52'> +5.0285645e+02 </wgt>
<wgt id='53'> +5.0648257e+02 </wgt>
<wgt id='54'> +5.0795025e+02 </wgt>
<wgt id='55'> +4.5126848e+02 </wgt>
<wgt id='56'> +4.6413739e+02 </wgt>
<wgt id='57'> +4.9147231e+02 </wgt>
<wgt id='58'> +5.0227315e+02 </wgt>
<wgt id='59'> +5.0352873e+02 </wgt>
<wgt id='60'> +4.8972687e+02 </wgt>
<wgt id='61'> +4.8025376e+02 </wgt>
<wgt id='62'> +4.9922206e+02 </wgt>
<wgt id='63'> +5.0544045e+02 </wgt>
<wgt id='64'> +4.9498610e+02 </wgt>
<wgt id='65'> +5.9328383e+02 </wgt>
<wgt id='66'> +4.9457427e+02 </wgt>
<wgt id='67'> +5.0931640e+02 </wgt>
<wgt id='68'> +5.4760886e+02 </wgt>
<wgt id='69'> +5.0039414e+02 </wgt>
<wgt id='70'> +4.9572497e+02 </wgt>
<wgt id='71'> +5.1371802e+02 </wgt>
<wgt id='72'> +4.8007037e+02 </wgt>
<wgt id='73'> +4.9497429e+02 </wgt>
<wgt id='74'> +5.2620862e+02 </wgt>
<wgt id='75'> +5.1782304e+02 </wgt>
<wgt id='76'> +4.8891707e+02 </wgt>
<wgt id='77'> +4.8986259e+02 </wgt>
<wgt id='78'> +4.9834349e+02 </wgt>
<wgt id='79'> +4.8835010e+02 </wgt>
<wgt id='80'> +4.9805285e+02 </wgt>
<wgt id='81'> +4.9353872e+02 </wgt>
<wgt id='82'> +5.1463694e+02 </wgt>
<wgt id='83'> +5.1826526e+02 </wgt>
<wgt id='84'> +5.5704122e+02 </wgt>
<wgt id='85'> +5.3040009e+02 </wgt>
<wgt id='86'> +5.0548597e+02 </wgt>
<wgt id='87'> +5.0676971e+02 </wgt>
<wgt id='88'> +5.1538965e+02 </wgt>
<wgt id='89'> +5.1842842e+02 </wgt>
<wgt id='90'> +5.1204637e+02 </wgt>
<wgt id='91'> +5.3462058e+02 </wgt>
<wgt id='92'> +4.5449820e+02 </wgt>
<wgt id='93'> +4.9953331e+02 </wgt>
<wgt id='94'> +4.9764047e+02 </wgt>
<wgt id='95'> +4.8204243e+02 </wgt>
<wgt id='96'> +5.5269852e+02 </wgt>
<wgt id='97'> +5.0877459e+02 </wgt>
<wgt id='98'> +4.8363296e+02 </wgt>
<wgt id='99'> +4.8721641e+02 </wgt>
<wgt id='100'> +4.9034797e+02 </wgt>
<wgt id='101'> +5.4187076e+02 </wgt>
<wgt id='102'> +5.0086144e+02 </wgt>
<wgt id='103'> +5.5178722e+02 </wgt>
<wgt id='104'> +5.0763678e+02 </wgt>
<wgt id='105'> +5.2026707e+02 </wgt>
<wgt id='106'> +4.5566540e+02 </wgt>
<wgt id='107'> +4.8892709e+02 </wgt>
<wgt id='108'> +4.4426922e+02 </wgt>
<wgt id='109'> +4.6897873e+02 </wgt>
<wgt id='110'> +5.0323168e+02 </wgt>
<wgt id='111'> +4.8841723e+02 </wgt>
<wgt id='112'> +4.7709394e+02 </wgt>
<wgt id='113'> +4.5985661e+02 </wgt>
<wgt id='114'> +4.9419349e+02 </wgt>
<wgt id='115'> +4.9609057e+02 </wgt>
<wgt id='116'> +5.1335983e+02 </wgt>
<wgt id='117'> +5.0797987e+02 </wgt>
<wgt id='118'> +5.2502229e+02 </wgt>
<wgt id='119'> +4.8288284e+02 </wgt>
<wgt id='120'> +4.9713698e+02 </wgt>
<wgt id='121'> +4.8753788e+02 </wgt>
<wgt id='122'> +4.9713579e+02 </wgt>
<wgt id='123'> +5.1345123e+02 </wgt>
<wgt id='124'> +5.4851629e+02 </wgt>
<wgt id='125'> +5.4920569e+02 </wgt>
<wgt id='126'> +5.2750868e+02 </wgt>
<wgt id='127'> +5.2219131e+02 </wgt>
<wgt id='128'> +4.6452152e+02 </wgt>
<wgt id='129'> +5.7316474e+02 </wgt>
<wgt id='130'> +5.1068724e+02 </wgt>
<wgt id='131'> +5.3915494e+02 </wgt>
<wgt id='132'> +5.0548471e+02 </wgt>
<wgt id='133'> +5.0790295e+02 </wgt>
<wgt id='134'> +4.7686145e+02 </wgt>
<wgt id='135'> +5.1711831e+02 </wgt>
<wgt id='136'> +4.8931511e+02 </wgt>
<wgt id='137'> +4.7891333e+02 </wgt>
<wgt id='138'> +4.6780369e+02 </wgt>
<wgt id='139'> +5.1739224e+02 </wgt>
<wgt id='140'> +5.3226346e+02 </wgt>
<wgt id='141'> +5.0670871e+02 </wgt>
<wgt id='142'> +4.9950071e+02 </wgt>
<wgt id='143'> +5.0370526e+02 </wgt>
<wgt id='144'> +4.9953891e+02 </wgt>
<wgt id='145'> +5.0593342e+02 </wgt>
</rwgt>
</event>
<event>
 4      1 +5.0481800e+02 2.29747100e+02 7.54677100e-03 1.12681800e-01
       21 -1    0    0  501  502 +0.0000000000e+00 +0.0000000000e+00 +8.3551397935e+02 8.3551397935e+02 0.0000000000e+00 0.0000e+00 -1.0000e+00
       21 -1    0    0  502  503 -0.0000000000e+00 -0.0000000000e+00 -8.1089036728e+01 8.1089036728e+01 0.0000000000e+00 0.0000e+00 -1.0000e+00
        6  1    1    2  501    0 +8.9641686859e+01 -1.2173378777e+02 +1.6180302307e+02 2.8100527643e+02 1.7300000000e+02 0.0000e+00 -1.0000e+00
       -6  1    1    2    0  503 -8.9641686859e+01 +1.2173378777e+02 +5.9262191956e+02 6.3559773965e+02 1.7300000000e+02 0.0000e+00 -1.0000e+00
<mgrwt>
<rscale>  2 0.22974714E+03</rscale>
<asrwt>0</asrwt>
<pdfrwt beam="1">  1       21 0.12854061E+00 0.22974714E+03</pdfrwt>
<pdfrwt beam="2">  1       21 0.12475237E-01 0.22974714E+03</pdfrwt>
<totfact> 0.23811093E+04</totfact>
</mgrwt>
<rwgt>
<wgt id='1'> +6.6223170e+02 </wgt>
<wgt id='2'> +5.6108579e+02 </wgt>
<wgt id='3'> +5.0481800e+02 </wgt>
<wgt id='4'> +6.6223170e+02 </wgt>
<wgt id='5'> +4.8159448e+02 </wgt>
<wgt id='6'> +6.1354946e+02 </wgt>
<wgt id='7'> +5.1472313e+02 </wgt>
<wgt id='8'> +4.6285158e+02 </wgt>
<wgt id='9'> +6.1354946e+02 </wgt>
<wgt id='10'> +4.4165893e+02 </wgt>
<wgt id='11'> +5.6254400e+02 </wgt>
<wgt id='12'> +4.7233748e+02 </wgt>
<wgt id='13'> +4.2503579e+02 </wgt>
<wgt id='14'> +5.6254401e+02 </wgt>
<wgt id='15'> +4.0571642e+02 </wgt>
<wgt id='16'> +5.4487291e+02 </wgt>
<wgt id='17'> +4.7094333e+02 </wgt>
<wgt id='18'> +4.2658314e+02 </wgt>
<wgt id='19'> +5.4487291e+02 </wgt>
<wgt id='20'> +4.0798079e+02 </wgt>
<wgt id='21'> +4.3202916e+02 </wgt>
<wgt id='22'> +3.9112053e+02 </wgt>
<wgt id='23'> +5.0481800e+02 </wgt>
<wgt id='24'> +3.7414956e+02 </wgt>
<wgt id='25'> +4.6285158e+02 </wgt>
<wgt id='26'> +3.9645307e+02 </wgt>
<wgt id='27'> +3.5916529e+02 </wgt>
<wgt id='28'> +4.6285158e+02 </wgt>
<wgt id='29'> +3.4370101e+02 </wgt>
<wgt id='30'> +4.6043049e+02 </wgt>
<wgt id='31'> +4.0120995e+02 </wgt>
<wgt id='32'> +3.6521700e+02 </wgt>
<wgt id='33'> +4.6043049e+02 </wgt>
<wgt id='34'> +3.5004172e+02 </wgt>
<wgt id='35'> +4.2658314e+02 </wgt>
<wgt id='36'> +3.6805787e+02 </wgt>
<wgt id='37'> +3.3485586e+02 </wgt>
<wgt id='38'> +4.2658314e+02 </wgt>
<wgt id='39'> +3.2101500e+02 </wgt>
<wgt id='40'> +3.9112053e+02 </wgt>
<wgt id='41'> +3.3774959e+02 </wgt>
<wgt id='42'> +3.0749755e+02 </wgt>
<wgt id='43'> +3.9112053e+02 </wgt>
<wgt id='44'> +2.9489057e+02 </wgt>
<wgt id='45'> +5.0481800e+02 </wgt>
<wgt id='46'> +5.1830072e+02 </wgt>
<wgt id='47'> +5.1959831e+02 </wgt>
<wgt id='48'> +5.0729546e+02 </wgt>
<wgt id='49'> +4.8758086e+02 </wgt>
<wgt id='50'> +6.0200193e+02 </wgt>
<wgt id='51'> +4.8722569e+02 </wgt>
<wgt id='52'> +4.9735302e+02 </wgt>
<wgt id='53'> +4.9838456e+02 </wgt>
<wgt id='54'> +5.2047056e+02 </wgt>
<wgt id='55'> +5.0218803e+02 </wgt>
<wgt id='56'> +4.6469234e+02 </wgt>
<wgt id='57'> +5.1723048e+02 </wgt>
<wgt id='58'> +4.8254078e+02 </wgt>
<wgt id='59'> +5.3395374e+02 </wgt>
<wgt id='60'> +5.0612081e+02 </wgt>
<wgt id='61'> +4.3983785e+02 </wgt>
<wgt id='62'> +4.8755675e+02 </wgt>
<wgt id='63'> +5.1344511e+02 </wgt>
<wgt id='64'> +4.9804728e+02 </wgt>
<wgt id='65'> +5.3405581e+02 </wgt>
<wgt id='66'> +4.9991696e+02 </wgt>
<wgt id='67'> +5.0715667e+02 </wgt>
<wgt id='68'> +5.7011069e+02 </wgt>
<wgt id='69'> +5.1524587e+02 </wgt>
<wgt id='70'> +5.0743550e+02 </wgt>
<wgt id='71'> +4.9988694e+02 </wgt>
<wgt id='72'> +4.8042057e+02 </wgt>
<wgt id='73'> +4.7841438e+02 </wgt>
<wgt id='74'> +5.4530721e+02 </wgt>
<wgt id='75'> +5.2250304e+02 </wgt>
<wgt id='76'> +5.0546250e+02 </wgt>
<wgt id='77'> +4.9240825e+02 </wgt>
<wgt id='78'> +4.6797946e+02 </wgt>
<wgt id='79'> +5.0992492e+02 </wgt>
<wgt id='80'> +4.7942837e+02 </wgt>
<wgt id='81'> +5.0101663e+02 </wgt>
<wgt id='82'> +4.9032687e+02 </wgt>
<wgt id='83'> +5.0670407e+02 </wgt>
<wgt id='84'> +5.2887056e+02 </wgt>
<wgt id='85'> +4.9731733e+02 </wgt>
<wgt id='86'> +5.1292609e+02 </wgt>
<wgt id='87'> +5.0657640e+02 </wgt>
<wgt id='88'> +5.0213436e+02 </wgt>
<wgt id='89'> +4.9140743e+02 </wgt>
<wgt id='90'> +5.0517819e+02 </wgt>
<wgt id='91'> +4.9550119e+02 </wgt>
<wgt id='92'> +4.6367593e+02 </wgt>
<wgt id='93'> +5.0466476e+02 </wgt>
<wgt id='94'> +4.8173543e+02 </wgt>
<wgt id='95'> +5.1034966e+02 </wgt>
<wgt id='96'> +5.3567747e+02 </wgt>
<wgt id='97'> +4.8728109e+02 </wgt>
<wgt id='98'> +5.0665361e+02 </wgt>
<wgt id='99'> +4.6313420e+02 </wgt>
<wgt id='100'> +4.4488046e+02 </wgt>
<wgt id='101'> +5.6881534e+02 </wgt>
<wgt id='102'> +5.3560057e+02 </wgt>
<wgt id='103'> +5.2754542e+02 </wgt>
<wgt id='104'> +5.1800478e+02 </wgt>
<wgt id='105'> +5.1992605e+02 </wgt>
<wgt id='106'> +4.6761896e+02 </wgt>
<wgt id='107'> +4.7930906e+02 </wgt>
<wgt id='108'> +4.5225380e+02 </wgt>
<wgt id='109'> +4.8290743e+02 </wgt>
<wgt id='110'> +4.9080190e+02 </wgt>
<wgt id='111'> +4.9218633e+02 </wgt>
<wgt id='112'> +4.9116694e+02 </wgt>
<wgt id='113'> +4.8275619e+02 </wgt>
<wgt id='114'> +5.0230411e+02 </wgt>
<wgt id='115'> +4.7248189e+02 </wgt>
<wgt id='116'> +5.3257480e+02 </wgt>
<wgt id='117'> +4.9606213e+02 </wgt>
<wgt id='118'> +5.2922446e+02 </wgt>
<wgt id='119'> +5.0886355e+02 </wgt>
<wgt id='120'> +4.9822135e+02 </wgt>
<wgt id='121'> +4.9877125e+02 </wgt>
<wgt id='122'> +4.9865198e+02 </wgt>
<wgt id='123'> +5.0217039e+02 </wgt>
<wgt id='124'> +5.6444173e+02 </wgt>
<wgt id='125'> +5.8249449e+02 </wgt>
<wgt id='126'> +5.1287701e+02 </wgt>
<wgt id='127'> +5.0892326e+02 </wgt>
<wgt id='128'> +4.6461883e+02 </wgt>
<wgt id='129'> +5.5204741e+02 </wgt>
<wgt id='130'> +4.9381194e+02 </wgt>
<wgt id='131'> +5.0820814e+02 </wgt>
<wgt id='132'> +5.4046471e+02 </wgt>
<wgt id='133'> +5.2916417e+02 </wgt>
<wgt id='134'> +5.0285588e+02 </wgt>
<wgt id='135'> +5.0318930e+02 </wgt>
<wgt id='136'> +5.4574037e+02 </wgt>
<wgt id='137'> +4.9473348e+02 </wgt>
<wgt id='138'> +4.8732405e+02 </wgt>
<wgt id='139'> +5.2039934e+02 </wgt>
<wgt id='140'> +5.0979916e+02 </wgt>
<wgt id='141'> +5.2805446e+02 </wgt>
<wgt id='142'> +4.4321248e+02 </wgt>
<wgt id='143'> +5.1769146e+02 </wgt>
<wgt id='144'> +4.8388823e+02 </wgt>
<wgt id='145'> +4.9070522e+02 </wgt>
</rwgt>
</event>
<event>
 4      1 +5.0481800e+02 1.98981800e+02 7.54677100e-03 1.15060100e-01
       21 -1    0    0  503  502 +0.0000000000e+00 +0.0000000000e+00 +1.3237458022e+03 1.3237458022e+03 0.0000000000e+00 0.0000e+00 1.0000e+00
       21 -1    0    0  501  503 -0.0000000000e+00 -0.0000000000e+00 -1.0001846833e+02 1.0001846833e+02 0.0000000000e+00 0.0000e+00 1.0000e+00
        6  1    1    2  501    0 +5.7471554304e+01 +7.9760769499e+01 +1.5855774761e+01 1.9961253843e+02 1.7300000000e+02 0.0000e+00 1.0000e+00
       -6  1    1    2    0  502 -5.7471554304e+01 -7.9760769499e+01 +1.2078715591e+03 1.2241517321e+03 1.7300000000e+02 0.0000e+00 1.0000e+00
<mgrwt>
<rscale>  2 0.19898181E+03</rscale>
<asrwt>0</asrwt>
<pdfrwt beam="1">  1       21 0.20365319E+00 0.19898181E+03</pdfrwt>
<pdfrwt beam="2">  1       21 0.15387458E-01 0.19898181E+03</pdfrwt>
<totfact> 0.47367107E+03</totfact>
</mgrwt>
<rwgt>
<wgt id='1'> +6.9555356e+02 </wgt>
<wgt id='2'> +5.7686183e+02 </wgt>
<wgt id='3'> +5.0481800e+02 </wgt>
<wgt id='4'> +6.9555356e+02 </wgt>
<wgt id='5'> +3.8866891e+02 </wgt>
<wgt id='6'> +6.1845758e+02 </wgt>
<wgt id='7'> +5.0871548e+02 </wgt>
<wgt id='8'> +4.4427712e+02 </wgt>
<wgt id='9'> +6.1845759e+02 </wgt>
<wgt id='10'> +3.4367926e+02 </wgt>
<wgt id='11'> +5.4428835e+02 </wgt>
<wgt id='12'> +4.4911665e+02 </wgt>
<wgt id='13'> +3.9312442e+02 </wgt>
<wgt id='14'> +5.4428835e+02 </wgt>
<wgt id='15'> +3.0554991e+02 </wgt>
<wgt id='16'> +5.6774784e+02 </wgt>
<wgt id='17'> +4.8088740e+02 </wgt>
<wgt id='18'> +4.2536324e+02 </wgt>
<wgt id='19'> +5.6774784e+02 </wgt>
<wgt id='20'> +3.3137275e+02 </wgt>
<wgt id='21'> +4.2407879e+02 </wgt>
<wgt id='22'> +3.7435107e+02 </wgt>
<wgt id='23'> +5.0481800e+02 </wgt>
<wgt id='24'> +2.9301531e+02 </wgt>
<wgt id='25'> +4.4427712e+02 </wgt>
<wgt id='26'> +3.7439561e+02 </wgt>
<wgt id='27'> +3.3124943e+02 </wgt>
<wgt id='28'> +4.4427712e+02 </wgt>
<wgt id='29'> +2.6050685e+02 </wgt>
<wgt id='30'> +4.7838837e+02 </wgt>
<wgt id='31'> +4.0841941e+02 </wgt>
<wgt id='32'> +3.6324761e+02 </wgt>
<wgt id='33'> +4.7838837e+02 </wgt>
<wgt id='34'> +2.8587242e+02 </wgt>
<wgt id='35'> +4.2536324e+02 </wgt>
<wgt id='36'> +3.6017165e+02 </wgt>
<wgt id='37'> +3.1968473e+02 </wgt>
<wgt id='38'> +4.2536324e+02 </wgt>
<wgt id='39'> +2.5278179e+02 </wgt>
<wgt id='40'> +3.7435106e+02 </wgt>
<wgt id='41'> +3.1797555e+02 </wgt>
<wgt id='42'> +2.8287721e+02 </wgt>
<wgt id='43'> +3.7435107e+02 </wgt>
<wgt id='44'> +2.2473702e+02 </wgt>
<wgt id='45'> +5.0481800e+02 </wgt>
<wgt id='46'> +5.1963134e+02 </wgt>
<wgt id='47'> +5.3132582e+02 </wgt>
<wgt id='48'> +5.0539431e+02 </wgt>
<wgt id='49'> +4.6303753e+02 </wgt>
<wgt id='50'> +6.0999871e+02 </wgt>
<wgt id='51'> +4.7337775e+02 </wgt>
<wgt id='52'> +4.6730135e+02 </wgt>
<wgt id='53'> +5.1107802e+02 </wgt>
<wgt id='54'> +5.3726519e+02 </wgt>
<wgt id='55'> +5.5937931e+02 </wgt>
<wgt id='56'> +4.7821713e+02 </wgt>
<wgt id='57'> +5.3455957e+02 </wgt>
<wgt id='58'> +4.5273004e+02 </wgt>
<wgt id='59'> +5.4668753e+02 </wgt>
<wgt id='60'> +4.9743600e+02 </wgt>
<wgt id='61'> +4.3504594e+02 </wgt>
<wgt id='62'> +4.6249195e+02 </wgt>
<wgt id='63'> +5.3297787e+02 </wgt>
<wgt id='64'> +5.0342947e+02 </wgt>
<wgt id='65'> +4.7230620e+02 </wgt>
<wgt id='66'> +5.1166559e+02 </wgt>
<wgt id='67'> +5.0893704e+02 </wgt>
<wgt id='68'> +6.2434830e+02 </wgt>
<wgt id='69'> +5.5363389e+02 </wgt>
<wgt id='70'> +5.4789638e+02 </wgt>
<wgt id='71'> +4.6861601e+02 </wgt>
<wgt id='72'> +4.5310113e+02 </wgt>
<wgt id='73'> +4.5314449e+02 </wgt>
<wgt id='74'> +5.8714080e+02 </wgt>
<wgt id='75'> +5.5687802e+02 </wgt>
<wgt id='76'> +5.1690404e+02 </wgt>
<wgt id='77'> +4.7248904e+02 </wgt>
<wgt id='78'> +4.3277727e+02 </wgt>
<wgt id='79'> +5.4008687e+02 </wgt>
<wgt id='80'> +4.4388520e+02 </wgt>
<wgt id='81'> +5.2349209e+02 </wgt>
<wgt id='82'> +4.9838882e+02 </wgt>
<wgt id='83'> +5.0275451e+02 </wgt>
<wgt id='84'> +5.0004751e+02 </wgt>
<wgt id='85'> +4.5740010e+02 </wgt>
<wgt id='86'> +5.3398768e+02 </wgt>
<wgt id='87'> +4.9676671e+02 </wgt>
<wgt id='88'> +4.9803349e+02 </wgt>
<wgt id='89'> +4.2470071e+02 </wgt>
<wgt id='90'> +4.6657434e+02 </wgt>
<wgt id='91'> +4.4018162e+02 </wgt>
<wgt id='92'> +4.6508133e+02 </wgt>
<wgt id='93'> +5.1056176e+02 </wgt>
<wgt id='94'> +4.6090220e+02 </wgt>
<wgt id='95'> +5.2611223e+02 </wgt>
<wgt id='96'> +5.3760824e+02 </wgt>
<wgt id='97'> +4.5616386e+02 </wgt>
<wgt id='98'> +5.4538802e+02 </wgt>
<wgt id='99'> +4.1838655e+02 </wgt>
<wgt id='100'> +3.7907810e+02 </wgt>
<wgt id='101'> +5.9454517e+02 </wgt>
<wgt id='102'> +5.6977657e+02 </wgt>
<wgt id='103'> +4.8431320e+02 </wgt>
<wgt id='104'> +5.4558232e+02 </wgt>
<wgt id='105'> +5.1685087e+02 </wgt>
<wgt id='106'> +4.8426095e+02 </wgt>
<wgt id='107'> +4.8693268e+02 </wgt>
<wgt id='108'> +4.6476886e+02 </wgt>
<wgt id='109'> +4.9370624e+02 </wgt>
<wgt id='110'> +4.5933088e+02 </wgt>
<wgt id='111'> +4.8762237e+02 </wgt>
<wgt id='112'> +5.2306450e+02 </wgt>
<wgt id='113'> +5.2820253e+02 </wgt>
<wgt id='114'> +5.2214211e+02 </wgt>
<wgt id='115'> +4.6558493e+02 </wgt>
<wgt id='116'> +5.5874036e+02 </wgt>
<wgt id='117'> +4.9695780e+02 </wgt>
<wgt id='118'> +5.2194607e+02 </wgt>
<wgt id='119'> +5.5140978e+02 </wgt>
<wgt id='120'> +5.0615351e+02 </wgt>
<wgt id='121'> +4.9044456e+02 </wgt>
<wgt id='122'> +4.9161221e+02 </wgt>
<wgt id='123'> +4.8234550e+02 </wgt>
<wgt id='124'> +5.7568330e+02 </wgt>
<wgt id='125'> +6.4516433e+02 </wgt>
<wgt id='126'> +4.9628562e+02 </wgt>
<wgt id='127'> +4.8313811e+02 </wgt>
<wgt id='128'> +4.8613223e+02 </wgt>
<wgt id='129'> +5.2019026e+02 </wgt>
<wgt id='130'> +5.0164343e+02 </wgt>
<wgt id='131'> +4.6558450e+02 </wgt>
<wgt id='132'> +5.4912569e+02 </wgt>
<wgt id='133'> +5.5269326e+02 </wgt>
<wgt id='134'> +5.2783470e+02 </wgt>
<wgt id='135'> +4.8282798e+02 </wgt>
<wgt id='136'> +5.9246811e+02 </wgt>
<wgt id='137'> +5.3261056e+02 </wgt>
<wgt id='138'> +5.1873143e+02 </wgt>
<wgt id='139'> +5.2132160e+02 </wgt>
<wgt id='140'> +4.9487770e+02 </wgt>
<wgt id='141'> +5.8004274e+02 </wgt>
<wgt id='142'> +3.4709278e+02 </wgt>
<wgt id='143'> +5.1492882e+02 </wgt>
<wgt id='144'> +4.5469390e+02 </wgt>
<wgt id='145'> +4.6433598e+02 </wgt>
</rwgt>
</event>
<event>
 4      1 +5.0481800e+02 2.18026500e+02 7.54677100e-03 1.13536300e-01
       21 -1    0    0  503  502 +0.0000000000e+00 +0.0000000000e+00 +4.3259412765e+02 4.3259412765e+02 0.0000000000e+00 0.0000e+00 1.0000e+00
       21 -1    0    0  501  503 -0.0000000000e+00 -0.0000000000e+00 -1.1119145539e+02 1.1119145539e+02 0.0000000000e+00 0.0000e+00 1.0000e+00
        6  1    1    2  501    0 -1.2490641121e+02 -4.4776572275e+01 +1.3122798368e+02 2.5447266393e+02 1.7300000000e+02 0.0000e+00 1.0000e+00
       -6  1    1    2    0  502 +1.2490641121e+02 +4.4776572275e+01 +1.9017468858e+02 2.8931291911e+02 1.7300000000e+02 0.0000e+00 1.0000e+00
<mgrwt>
<rscale>  2 0.21802650E+03</rscale>
<asrwt>0</asrwt>
<pdfrwt beam="1">  1       21 0.66552942E-01 0.21802650E+03</pdfrwt>
<pdfrwt beam="2">  1       21 0.17106378E-01 0.21802650E+03</pdfrwt>
<totfact> 0.63112076E+04</totfact>
</mgrwt>
<rwgt>
<wgt id='1'> +6.4796265e+02 </wgt>
<wgt id='2'> +5.4746724e+02 </wgt>
<wgt id='3'> +5.0481800e+02 </wgt>
<wgt id='4'> +6.4796265e+02 </wgt>
<wgt id='5'> +5.0377753e+02 </wgt>
<wgt id='6'> +6.1531261e+02 </wgt>
<wgt id='7'> +5.1332443e+02 </wgt>
<wgt id='8'> +4.7267122e+02 </wgt>
<wgt id='9'> +6.1531261e+02 </wgt>
<wgt id='10'> +4.7169980e+02 </wgt>
<wgt id='11'> +5.7612954e+02 </wgt>
<wgt id='12'> +4.8056902e+02 </wgt>
<wgt id='13'> +4.4252854e+02 </wgt>
<wgt id='14'> +5.7612954e+02 </wgt>
<wgt id='15'> +4.4162008e+02 </wgt>
<wgt id='16'> +5.3160492e+02 </wgt>
<wgt id='17'> +4.5940058e+02 </wgt>
<wgt id='18'> +4.2616015e+02 </wgt>
<wgt id='19'> +5.3160492e+02 </wgt>
<wgt id='20'> +4.2532859e+02 </wgt>
<wgt id='21'> +4.3075005e+02 </wgt>
<wgt id='22'> +3.9902229e+02 </wgt>
<wgt id='23'> +5.0481800e+02 </wgt>
<wgt id='24'> +3.9824606e+02 </wgt>
<wgt id='25'> +4.7267122e+02 </wgt>
<wgt id='26'> +4.0326374e+02 </wgt>
<wgt id='27'> +3.7357628e+02 </wgt>
<wgt id='28'> +4.7267122e+02 </wgt>
<wgt id='29'> +3.7285039e+02 </wgt>
<wgt id='30'> +4.4877328e+02 </wgt>
<wgt id='31'> +3.9132461e+02 </wgt>
<wgt id='32'> +3.6452188e+02 </wgt>
<wgt id='33'> +4.4877328e+02 </wgt>
<wgt id='34'> +3.6384821e+02 </wgt>
<wgt id='35'> +4.2616015e+02 </wgt>
<wgt id='36'> +3.6691964e+02 </wgt>
<wgt id='37'> +3.4130915e+02 </wgt>
<wgt id='38'> +4.2616015e+02 </wgt>
<wgt id='39'> +3.4068040e+02 </wgt>
<wgt id='40'> +3.9902229e+02 </wgt>
<wgt id='41'> +3.4350637e+02 </wgt>
<wgt id='42'> +3.1954355e+02 </wgt>
<wgt id='43'> +3.9902229e+02 </wgt>
<wgt id='44'> +3.1895562e+02 </wgt>
<wgt id='45'> +5.0481800e+02 </wgt>
<wgt id='46'> +5.0847288e+02 </wgt>
<wgt id='47'> +5.2179115e+02 </wgt>
<wgt id='48'> +5.0733502e+02 </wgt>
<wgt id='49'> +5.0183389e+02 </wgt>
<wgt id='50'> +5.9124123e+02 </wgt>
<wgt id='51'> +4.9465412e+02 </wgt>
<wgt id='52'> +5.0305549e+02 </wgt>
<wgt id='53'> +5.0633968e+02 </wgt>
<wgt id='54'> +5.0882322e+02 </wgt>
<wgt id='55'> +4.6024135e+02 </wgt>
<wgt id='56'> +4.6727591e+02 </wgt>
<wgt id='57'> +4.9625203e+02 </wgt>
<wgt id='58'> +5.0409320e+02 </wgt>
<wgt id='59'> +5.0601083e+02 </wgt>
<wgt id='60'> +4.9145596e+02 </wgt>
<wgt id='61'> +4.7579724e+02 </wgt>
<wgt id='62'> +4.9767560e+02 </wgt>
<wgt id='63'> +5.0557789e+02 </wgt>
<wgt id='64'> +4.9784842e+02 </wgt>
<wgt id='65'> +5.8257782e+02 </wgt>
<wgt id='66'> +4.9414995e+02 </wgt>
<wgt id='67'> +5.0889701e+02 </wgt>
<wgt id='68'> +5.4531994e+02 </wgt>
<wgt id='69'> +4.9621471e+02 </wgt>
<wgt id='70'> +4.9714802e+02 </wgt>
<wgt id='71'> +5.1318182e+02 </wgt>
<wgt id='72'> +4.8931048e+02 </wgt>
<wgt id='73'> +4.9573480e+02 </wgt>
<wgt id='74'> +5.2391933e+02 </wgt>
<wgt id='75'> +5.1582826e+02 </wgt>
<wgt id='76'> +4.9294639e+02 </wgt>
<wgt id='77'> +4.8982649e+02 </wgt>
<wgt id='78'> +4.9801506e+02 </wgt>
<wgt id='79'> +4.8940082e+02 </wgt>
<wgt id='80'> +4.9773493e+02 </wgt>
<wgt id='81'> +4.9560528e+02 </wgt>
<wgt id='82'> +5.1168314e+02 </wgt>
<wgt id='83'> +5.1371326e+02 </wgt>
<wgt id='84'> +5.4967672e+02 </wgt>
<wgt id='85'> +5.2541456e+02 </wgt>
<wgt id='86'> +5.0337385e+02 </wgt>
<wgt id='87'> +5.0605450e+02 </wgt>
<wgt id='88'> +5.1126910e+02 </wgt>
<wgt id='89'> +5.1534452e+02 </wgt>
<wgt id='90'> +5.1220943e+02 </wgt>
<wgt id='91'> +5.3053531e+02 </wgt>
<wgt id='92'> +4.6439468e+02 </wgt>
<wgt id='93'> +4.9840854e+02 </wgt>
<wgt id='94'> +4.9897293e+02 </wgt>
<wgt id='95'> +4.8873130e+02 </wgt>
<wgt id='96'> +5.4331547e+02 </wgt>
<wgt id='97'> +5.0838596e+02 </wgt>
<wgt id='98'> +4.8575632e+02 </wgt>
<wgt id='99'> +4.8719730e+02 </wgt>
<wgt id='100'> +4.9192672e+02 </wgt>
<wgt id='101'> +5.3826083e+02 </wgt>
<wgt id='102'> +4.9956449e+02 </wgt>
<wgt id='103'> +5.4619072e+02 </wgt>
<wgt id='104'> +5.0546556e+02 </wgt>
<wgt id='105'> +5.2311595e+02 </wgt>
<wgt id='106'> +4.6384474e+02 </wgt>
<wgt id='107'> +4.9304608e+02 </wgt>
<wgt id='108'> +4.5093410e+02 </wgt>
<wgt id='109'> +4.7482541e+02 </wgt>
<wgt id='110'> +5.0420089e+02 </wgt>
<wgt id='111'> +4.9154678e+02 </wgt>
<wgt id='112'> +4.8030744e+02 </wgt>
<wgt id='113'> +4.6550768e+02 </wgt>
<wgt id='114'> +4.9963767e+02 </wgt>
<wgt id='115'> +4.9603337e+02 </wgt>
<wgt id='116'> +5.0987356e+02 </wgt>
<wgt id='117'> +5.0710849e+02 </wgt>
<wgt id='118'> +5.2109612e+02 </wgt>
<wgt id='119'> +4.8768080e+02 </wgt>
<wgt id='120'> +4.9782036e+02 </wgt>
<wgt id='121'> +4.9218553e+02 </wgt>
<wgt id='122'> +4.9883624e+02 </wgt>
<wgt id='123'> +5.1006588e+02 </wgt>
<wgt id='124'> +5.4435957e+02 </wgt>
<wgt id='125'> +5.4649225e+02 </wgt>
<wgt id='126'> +5.2265782e+02 </wgt>
<wgt id='127'> +5.1905733e+02 </wgt>
<wgt id='128'> +4.6579500e+02 </wgt>
<wgt id='129'> +5.6851993e+02 </wgt>
<wgt id='130'> +5.0542685e+02 </wgt>
<wgt id='131'> +5.3543487e+02 </wgt>
<wgt id='132'> +5.0948366e+02 </wgt>
<wgt id='133'> +5.0682345e+02 </wgt>
<wgt id='134'> +4.8068996e+02 </wgt>
<wgt id='135'> +5.1571872e+02 </wgt>
<wgt id='136'> +4.9575209e+02 </wgt>
<wgt id='137'> +4.7855381e+02 </wgt>
<wgt id='138'> +4.6450702e+02 </wgt>
<wgt id='139'> +5.1616291e+02 </wgt>
<wgt id='140'> +5.3047646e+02 </wgt>
<wgt id='141'> +5.0653438e+02 </wgt>
<wgt id='142'> +4.9746269e+02 </wgt>
<wgt id='143'> +5.0553146e+02 </wgt>
<wgt id='144'> +5.0167805e+02 </wgt>
<wgt id='145'> +5.0504496e+02 </wgt>
</rwgt>
</event>
<event>
 4      1 +5.0481800e+02 1.75242100e+02 7.54677100e-03 1.17248900e-01
       21 -1    0    0  501  502 +0.0000000000e+00 +0.0000000000e+00 +6.5393256473e+01 6.5393256473e+01 0.0000000000e+00 0.0000e+00 -1.0000e+00
       21 -1    0    0  502  503 -0.0000000000e+00 -0.0000000000e+00 -8.1075742045e+02 8.1075742045e+02 0.0000000000e+00 0.0000e+00 -1.0000e+00
        6  1    1    2  501    0 -1.8628324432e+01 +2.0827015760e+01 -8.8517474179e+01 1.9632911728e+02 1.7300000000e+02 0.0000e+00 -1.0000e+00
       -6  1    1    2    0  503 +1.8628324432e+01 -2.0827015760e+01 -6.5684668980e+02 6.7982155965e+02 1.7300000000e+02 0.0000e+00 -1.0000e+00
<mgrwt>
<rscale>  2 0.17524206E+03</rscale>
<asrwt>0</asrwt>
<pdfrwt beam="1">  1       21 0.10060501E-01 0.17524206E+03</pdfrwt>
<pdfrwt beam="2">  1       21 0.12473191E+00 0.17524206E+03</pdfrwt>
<totfact> 0.38883588E+04</totfact>
</mgrwt>
<rwgt>
<wgt id='1'> +6.6117805e+02 </wgt>
<wgt id='2'> +8.7951298e+02 </wgt>
<wgt id='3'> +5.0481800e+02 </wgt>
<wgt id='4'> +6.6117805e+02 </wgt>
<wgt id='5'> +4.5600467e+02 </wgt>
<wgt id='6'> +6.2223199e+02 </wgt>
<wgt id='7'> +8.3427558e+02 </wgt>
<wgt id='8'> +4.6664206e+02 </wgt>
<wgt id='9'> +6.2223199e+02 </wgt>
<wgt id='10'> +4.2117255e+02 </wgt>
<wgt id='11'> +5.7517683e+02 </wgt>
<wgt id='12'> +7.8506576e+02 </wgt>
<wgt id='13'> +4.3116855e+02 </wgt>
<wgt id='14'> +5.7517684e+02 </wgt>
<wgt id='15'> +3.8932036e+02 </wgt>
<wgt id='16'> +5.3641501e+02 </wgt>
<wgt id='17'> +6.9583607e+02 </wgt>
<wgt id='18'> +4.2377816e+02 </wgt>
<wgt id='19'> +5.3641501e+02 </wgt>
<wgt id='20'> +3.8535164e+02 </wgt>
<wgt id='21'> +6.6004602e+02 </wgt>
<wgt id='22'> +3.9173071e+02 </wgt>
<wgt id='23'> +5.0481800e+02 </wgt>
<wgt id='24'> +3.5591638e+02 </wgt>
<wgt id='25'> +4.6664206e+02 </wgt>
<wgt id='26'> +6.2111315e+02 </wgt>
<wgt id='27'> +3.6195185e+02 </wgt>
<wgt id='28'> +4.6664206e+02 </wgt>
<wgt id='29'> +3.2899934e+02 </wgt>
<wgt id='30'> +4.5030281e+02 </wgt>
<wgt id='31'> +5.6464496e+02 </wgt>
<wgt id='32'> +3.6105788e+02 </wgt>
<wgt id='33'> +4.5030281e+02 </wgt>
<wgt id='34'> +3.2992956e+02 </wgt>
<wgt id='35'> +4.2377815e+02 </wgt>
<wgt id='36'> +5.3560267e+02 </wgt>
<wgt id='37'> +3.3375354e+02 </wgt>
<wgt id='38'> +4.2377816e+02 </wgt>
<wgt id='39'> +3.0472774e+02 </wgt>
<wgt id='40'> +3.9173071e+02 </wgt>
<wgt id='41'> +5.0401010e+02 </wgt>
<wgt id='42'> +3.0838203e+02 </wgt>
<wgt id='43'> +3.9173071e+02 </wgt>
<wgt id='44'> +2.8168197e+02 </wgt>
<wgt id='45'> +5.0481800e+02 </wgt>
<wgt id='46'> +5.1723310e+02 </wgt>
<wgt id='47'> +5.1763682e+02 </wgt>
<wgt id='48'> +5.0660732e+02 </wgt>
<wgt id='49'> +4.8973444e+02 </wgt>
<wgt id='50'> +5.9731102e+02 </wgt>
<wgt id='51'> +4.8821035e+02 </wgt>
<wgt id='52'> +4.9971622e+02 </wgt>
<wgt id='53'> +4.9753326e+02 </wgt>
<wgt id='54'> +5.1909741e+02 </wgt>
<wgt id='55'> +4.9922498e+02 </wgt>
<wgt id='56'> +4.6472930e+02 </wgt>
<wgt id='57'> +5.1636668e+02 </wgt>
<wgt id='58'> +4.8645760e+02 </wgt>
<wgt id='59'> +5.3293481e+02 </wgt>
<wgt id='60'> +5.0751104e+02 </wgt>
<wgt id='61'> +4.3849565e+02 </wgt>
<wgt id='62'> +4.8910863e+02 </wgt>
<wgt id='63'> +5.1214473e+02 </wgt>
<wgt id='64'> +4.9857385e+02 </wgt>
<wgt id='65'> +5.3623190e+02 </wgt>
<wgt id='66'> +4.9854167e+02 </wgt>
<wgt id='67'> +5.0708364e+02 </wgt>
<wgt id='68'> +5.6574063e+02 </wgt>
<wgt id='69'> +5.1025123e+02 </wgt>
<wgt id='70'> +5.0517262e+02 </wgt>
<wgt id='71'> +5.0198469e+02 </wgt>
<wgt id='72'> +4.8494315e+02 </wgt>
<wgt id='73'> +4.8148940e+02 </wgt>
<wgt id='74'> +5.4172460e+02 </wgt>
<wgt id='75'> +5.1986505e+02 </wgt>
<wgt id='76'> +5.0497360e+02 </wgt>
<wgt id='77'> +4.9357763e+02 </wgt>
<wgt id='78'> +4.7118778e+02 </wgt>
<wgt id='79'> +5.0778559e+02 </wgt>
<wgt id='80'> +4.8220824e+02 </wgt>
<wgt id='81'> +5.0006982e+02 </wgt>
<wgt id='82'> +4.9058672e+02 </wgt>
<wgt id='83'> +5.0568063e+02 </wgt>
<wgt id='84'> +5.2928110e+02 </wgt>
<wgt id='85'> +5.0010518e+02 </wgt>
<wgt id='86'> +5.1070588e+02 </wgt>
<wgt id='87'> +5.0711548e+02 </wgt>
<wgt id='88'> +5.0116383e+02 </wgt>
<wgt id='89'> +4.9618303e+02 </wgt>
<wgt id='90'> +5.0801427e+02 </wgt>
<wgt id='91'> +4.9940464e+02 </wgt>
<wgt id='92'> +4.6597875e+02 </wgt>
<wgt id='93'> +5.0395182e+02 </wgt>
<wgt id='94'> +4.8427424e+02 </wgt>
<wgt id='95'> +5.0989168e+02 </wgt>
<wgt id='96'> +5.3387030e+02 </wgt>
<wgt id='97'> +4.8987278e+02 </wgt>
<wgt id='98'> +5.0360791e+02 </wgt>
<wgt id='99'> +4.6719320e+02 </wgt>
<wgt id='100'> +4.5154676e+02 </wgt>
<wgt id='101'> +5.6529120e+02 </wgt>
<wgt id='102'> +5.3137358e+02 </wgt>
<wgt id='103'> +5.3021288e+02 </wgt>
<wgt id='104'> +5.1460058e+02 </wgt>
<wgt id='105'> +5.2118989e+02 </wgt>
<wgt id='106'> +4.6826867e+02 </wgt>
<wgt id='107'> +4.8074352e+02 </wgt>
<wgt id='108'> +4.5242612e+02 </wgt>
<wgt id='109'> +4.8313967e+02 </wgt>
<wgt id='110'> +4.9405610e+02 </wgt>
<wgt id='111'> +4.9274143e+02 </wgt>
<wgt id='112'> +4.8927786e+02 </wgt>
<wgt id='113'> +4.8071465e+02 </wgt>
<wgt id='114'> +5.0216336e+02 </wgt>
<wgt id='115'> +4.7258528e+02 </wgt>
<wgt id='116'> +5.2888337e+02 </wgt>
<wgt id='117'> +4.9598325e+02 </wgt>
<wgt id='118'> +5.2842184e+02 </wgt>
<wgt id='119'> +5.0687783e+02 </wgt>
<wgt id='120'> +4.9695410e+02 </wgt>
<wgt id='121'> +5.0020939e+02 </wgt>
<wgt id='122'> +4.9936932e+02 </wgt>
<wgt id='123'> +5.0235736e+02 </wgt>
<wgt id='124'> +5.6201133e+02 </wgt>
<wgt id='125'> +5.7704771e+02 </wgt>
<wgt id='126'> +5.1324962e+02 </wgt>
<wgt id='127'> +5.1041032e+02 </wgt>
<wgt id='128'> +4.6271756e+02 </wgt>
<wgt id='129'> +5.5417810e+02 </wgt>
<wgt id='130'> +4.9274832e+02 </wgt>
<wgt id='131'> +5.1154157e+02 </wgt>
<wgt id='132'> +5.4006911e+02 </wgt>
<wgt id='133'> +5.2662752e+02 </wgt>
<wgt id='134'> +5.0126485e+02 </wgt>
<wgt id='135'> +5.0498688e+02 </wgt>
<wgt id='136'> +5.4256621e+02 </wgt>
<wgt id='137'> +4.9111141e+02 </wgt>
<wgt id='138'> +4.8227578e+02 </wgt>
<wgt id='139'> +5.2041540e+02 </wgt>
<wgt id='140'> +5.1155767e+02 </wgt>
<wgt id='141'> +5.2380773e+02 </wgt>
<wgt id='142'> +4.5093261e+02 </wgt>
<wgt id='143'> +5.1810770e+02 </wgt>
<wgt id='144'> +4.8736230e+02 </wgt>
<wgt id='145'> +4.9235610e+02 </wgt>
</rwgt>
</event>
<event>
 4      1 +5.0481800e+02 2.56617600e+02 7.54677100e-03 1.10919300e-01
       21 -1    0    0  503  502 +0.0000000000e+00 +0.0000000000e+00 +9.7762572573e+01 9.7762572573e+01 0.0000000000e+00 0.0000e+00 1.0000e+00
       21 -1    0    0  501  503 -0.0000000000e+00 -0.0000000000e+00 -6.8140568226e+02 6.8140568226e+02 0.0000000000e+00 0.0000e+00 1.0000e+00
        6  1    1    2  501    0 -1.7738976208e+02 +6.6756652691e+01 -2.5011671415e+02 3.5834473495e+02 1.7300000000e+02 0.0000e+00 1.0000e+00
       -6  1    1    2    0  502 +1.7738976208e+02 -6.6756652691e+01 -3.3352639554e+02 4.2082351989e+02 1.7300000000e+02 0.0000e+00 1.0000e+00
<mgrwt>
<rscale>  2 0.25661757E+03</rscale>
<asrwt>0</asrwt>
<pdfrwt beam="1">  1       21 0.15040396E-01 0.25661757E+03</pdfrwt>
<pdfrwt beam="2">  1       21 0.10483164E+00 0.25661757E+03</pdfrwt>
<totfact> 0.27684163E+04</totfact>
</mgrwt>
<rwgt>
<wgt id='1'> +6.5661034e+02 </wgt>
<wgt id='2'> +5.4169320e+02 </wgt>
<wgt id='3'> +5.0481800e+02 </wgt>
<wgt id='4'> +6.5661034e+02 </wgt>
<wgt id='5'> +5.0375008e+02 </wgt>
<wgt id='6'> +6.1004764e+02 </wgt>
<wgt id='7'> +4.9927883e+02 </wgt>
<wgt id='8'> +4.6545894e+02 </wgt>
<wgt id='9'> +6.1004764e+02 </wgt>
<wgt id='10'> +4.6447786e+02 </wgt>
<wgt id='11'> +5.6248415e+02 </wgt>
<wgt id='12'> +4.6075646e+02 </wgt>
<wgt id='13'> +4.2972739e+02 </wgt>
<wgt id='14'> +5.6248415e+02 </wgt>
<wgt id='15'> +4.2882737e+02 </wgt>
<wgt id='16'> +5.4334891e+02 </wgt>
<wgt id='17'> +4.5705495e+02 </wgt>
<wgt id='18'> +4.2753400e+02 </wgt>
<wgt id='19'> +5.4334891e+02 </wgt>
<wgt id='20'> +4.2667836e+02 </wgt>
<wgt id='21'> +4.2126772e+02 </wgt>
<wgt id='22'> +3.9420053e+02 </wgt>
<wgt id='23'> +5.0481800e+02 </wgt>
<wgt id='24'> +3.9341464e+02 </wgt>
<wgt id='25'> +4.6545894e+02 </wgt>
<wgt id='26'> +3.8876438e+02 </wgt>
<wgt id='27'> +3.6393922e+02 </wgt>
<wgt id='28'> +4.6545894e+02 </wgt>
<wgt id='29'> +3.6321852e+02 </wgt>
<wgt id='30'> +4.6016611e+02 </wgt>
<wgt id='31'> +3.9076102e+02 </wgt>
<wgt id='32'> +3.6672999e+02 </wgt>
<wgt id='33'> +4.6016610e+02 </wgt>
<wgt id='34'> +3.6603176e+02 </wgt>
<wgt id='35'> +4.2753400e+02 </wgt>
<wgt id='36'> +3.6016458e+02 </wgt>
<wgt id='37'> +3.3813721e+02 </wgt>
<wgt id='38'> +4.2753400e+02 </wgt>
<wgt id='39'> +3.3749603e+02 </wgt>
<wgt id='40'> +3.9420053e+02 </wgt>
<wgt id='41'> +3.3237571e+02 </wgt>
<wgt id='42'> +3.1217967e+02 </wgt>
<wgt id='43'> +3.9420053e+02 </wgt>
<wgt id='44'> +3.1159189e+02 </wgt>
<wgt id='45'> +5.0481800e+02 </wgt>
<wgt id='46'> +5.1629025e+02 </wgt>
<wgt id='47'> +5.2123830e+02 </wgt>
<wgt id='48'> +5.0822120e+02 </wgt>
<wgt id='49'> +4.9385505e+02 </wgt>
<wgt id='50'> +6.0243511e+02 </wgt>
<wgt id='51'> +4.9082220e+02 </wgt>
<wgt id='52'> +5.0118167e+02 </wgt>
<wgt id='53'> +4.9934654e+02 </wgt>
<wgt id='54'> +5.1509286e+02 </wgt>
<wgt id='55'> +4.8373243e+02 </wgt>
<wgt id='56'> +4.6260793e+02 </wgt>
<wgt id='57'> +5.0874360e+02 </wgt>
<wgt id='58'> +4.9013459e+02 </wgt>
<wgt id='59'> +5.2492366e+02 </wgt>
<wgt id='60'> +5.0265209e+02 </wgt>
<wgt id='61'> +4.4524799e+02 </wgt>
<wgt id='62'> +4.9286265e+02 </wgt>
<wgt id='63'> +5.0907341e+02 </wgt>
<wgt id='64'> +4.9585187e+02 </wgt>
<wgt id='65'> +5.5478167e+02 </wgt>
<wgt id='66'> +4.9777345e+02 </wgt>
<wgt id='67'> +5.0766959e+02 </wgt>
<wgt id='68'> +5.6010941e+02 </wgt>
<wgt id='69'> +5.0875421e+02 </wgt>
<wgt id='70'> +5.0153943e+02 </wgt>
<wgt id='71'> +5.0643831e+02 </wgt>
<wgt id='72'> +4.8206742e+02 </wgt>
<wgt id='73'> +4.8520030e+02 </wgt>
<wgt id='74'> +5.3733917e+02 </wgt>
<wgt id='75'> +5.1889311e+02 </wgt>
<wgt id='76'> +4.9995194e+02 </wgt>
<wgt id='77'> +4.9352281e+02 </wgt>
<wgt id='78'> +4.7878143e+02 </wgt>
<wgt id='79'> +5.0203170e+02 </wgt>
<wgt id='80'> +4.8758367e+02 </wgt>
<wgt id='81'> +4.9722028e+02 </wgt>
<wgt id='82'> +4.9641384e+02 </wgt>
<wgt id='83'> +5.1056942e+02 </wgt>
<wgt id='84'> +5.3891054e+02 </wgt>
<wgt id='85'> +5.0929151e+02 </wgt>
<wgt id='86'> +5.0967960e+02 </wgt>
<wgt id='87'> +5.0739529e+02 </wgt>
<wgt id='88'> +5.0704974e+02 </wgt>
<wgt id='89'> +5.0407813e+02 </wgt>
<wgt id='90'> +5.1048228e+02 </wgt>
<wgt id='91'> +5.1056832e+02 </wgt>
<wgt id='92'> +4.6096574e+02 </wgt>
<wgt id='93'> +5.0311988e+02 </wgt>
<wgt id='94'> +4.8781073e+02 </wgt>
<wgt id='95'> +5.0089705e+02 </wgt>
<wgt id='96'> +5.4021837e+02 </wgt>
<wgt id='97'> +4.9556316e+02 </wgt>
<wgt id='98'> +4.9834808e+02 </wgt>
<wgt id='99'> +4.7345074e+02 </wgt>
<wgt id='100'> +4.6252987e+02 </wgt>
<wgt id='101'> +5.5982127e+02 </wgt>
<wgt id='102'> +5.2376694e+02 </wgt>
<wgt id='103'> +5.3775275e+02 </wgt>
<wgt id='104'> +5.1306283e+02 </wgt>
<wgt id='105'> +5.1996893e+02 </wgt>
<wgt id='106'> +4.6251123e+02 </wgt>
<wgt id='107'> +4.8101470e+02 </wgt>
<wgt id='108'> +4.4836876e+02 </wgt>
<wgt id='109'> +4.7754301e+02 </wgt>
<wgt id='110'> +4.9651434e+02 </wgt>
<wgt id='111'> +4.9126028e+02 </wgt>
<wgt id='112'> +4.8298404e+02 </wgt>
<wgt id='113'> +4.7300424e+02 </wgt>
<wgt id='114'> +4.9704479e+02 </wgt>
<wgt id='115'> +4.7887190e+02 </wgt>
<wgt id='116'> +5.2558388e+02 </wgt>
<wgt id='117'> +4.9903975e+02 </wgt>
<wgt id='118'> +5.2885054e+02 </wgt>
<wgt id='119'> +4.9772176e+02 </wgt>
<wgt id='120'> +4.9541487e+02 </wgt>
<wgt id='121'> +4.9546917e+02 </wgt>
<wgt id='122'> +4.9861616e+02 </wgt>
<wgt id='123'> +5.0669473e+02 </wgt>
<wgt id='124'> +5.5938690e+02 </wgt>
<wgt id='125'> +5.6880294e+02 </wgt>
<wgt id='126'> +5.1827339e+02 </wgt>
<wgt id='127'> +5.1472954e+02 </wgt>
<wgt id='128'> +4.6231329e+02 </wgt>
<wgt id='129'> +5.6032016e+02 </wgt>
<wgt id='130'> +5.0066293e+02 </wgt>
<wgt id='131'> +5.2035301e+02 </wgt>
<wgt id='132'> +5.3061803e+02 </wgt>
<wgt id='133'> +5.2160304e+02 </wgt>
<wgt id='134'> +4.9410026e+02 </wgt>
<wgt id='135'> +5.0878194e+02 </wgt>
<wgt id='136'> +5.2651307e+02 </wgt>
<wgt id='137'> +4.8826916e+02 </wgt>
<wgt id='138'> +4.7997214e+02 </wgt>
<wgt id='139'> +5.1968373e+02 </wgt>
<wgt id='140'> +5.1672699e+02 </wgt>
<wgt id='141'> +5.1858321e+02 </wgt>
<wgt id='142'> +4.6721694e+02 </wgt>
<wgt id='143'> +5.1447301e+02 </wgt>
<wgt id='144'> +4.9050151e+02 </wgt>
<wgt id='145'> +4.9772472e+02 </wgt>
</rwgt>
</event>
<event>
 4      1 +5.0481800e+02 1.76296700e+02 7.54677100e-03 1.17143600e-01
       21 -1    0    0  503  502 +0.0000000000e+00 +0.0000000000e+00 +9.8638337861e+02 9.8638337861e+02 0.0000000000e+00 0.0000e+00 -1.0000e+00
       21 -1    0    0  501  503 -0.0000000000e+00 -0.0000000000e+00 -5.2476621410e+01 5.2476621410e+01 0.0000000000e+00 0.0000e+00 -1.0000e+00
        6  1    1    2  501    0 +8.3892076743e+00 -3.2880643258e+01 +1.3862170356e+02 2.2426879454e+02 1.7300000000e+02 0.0000e+00 -1.0000e+00
       -6  1    1    2    0  502 -8.3892076743e+00 +3.2880643258e+01 +7.9528505364e+02 8.1459120548e+02 1.7300000000e+02 0.0000e+00 -1.0000e+00
<mgrwt>
<rscale>  2 0.17629667E+03</rscale>
<asrwt>0</asrwt>
<pdfrwt beam="1">  1       21 0.15175128E+00 0.17629667E+03</pdfrwt>
<pdfrwt beam="2">  1       21 0.80733271E-02 0.17629667E+03</pdfrwt>
<totfact> 0.34586135E+04</totfact>
</mgrwt>
<rwgt>
<wgt id='1'> +6.6567779e+02 </wgt>
<wgt id='2'> +8.9399419e+02 </wgt>
<wgt id='3'> +5.0481800e+02 </wgt>
<wgt id='4'> +6.6567779e+02 </wgt>
<wgt id='5'> +4.5794456e+02 </wgt>
<wgt id='6'> +6.2205768e+02 </wgt>
<wgt id='7'> +8.4175492e+02 </wgt>
<wgt id='8'> +4.6360388e+02 </wgt>
<wgt id='9'> +6.2205768e+02 </wgt>
<wgt id='10'> +4.2030527e+02 </wgt>
<wgt id='11'> +5.7127193e+02 </wgt>
<wgt id='12'> +7.8661396e+02 </wgt>
<wgt id='13'> +4.2580438e+02 </wgt>
<wgt id='14'> +5.7127193e+02 </wgt>
<wgt id='15'> +3.8625299e+02 </wgt>
<wgt id='16'> +5.4021700e+02 </wgt>
<wgt id='17'> +7.0731058e+02 </wgt>
<wgt id='18'> +4.2386330e+02 </wgt>
<wgt id='19'> +5.4021700e+02 </wgt>
<wgt id='20'> +3.8690012e+02 </wgt>
<wgt id='21'> +6.6597989e+02 </wgt>
<wgt id='22'> +3.8925845e+02 </wgt>
<wgt id='23'> +5.0481800e+02 </wgt>
<wgt id='24'> +3.5510010e+02 </wgt>
<wgt id='25'> +4.6360388e+02 </wgt>
<wgt id='26'> +6.2235346e+02 </wgt>
<wgt id='27'> +3.5752063e+02 </wgt>
<wgt id='28'> +4.6360388e+02 </wgt>
<wgt id='29'> +3.2633061e+02 </wgt>
<wgt id='30'> +4.5358557e+02 </wgt>
<wgt id='31'> +5.7397361e+02 </wgt>
<wgt id='32'> +3.6117048e+02 </wgt>
<wgt id='33'> +4.5358557e+02 </wgt>
<wgt id='34'> +3.3118630e+02 </wgt>
<wgt id='35'> +4.2386330e+02 </wgt>
<wgt id='36'> +5.4043429e+02 </wgt>
<wgt id='37'> +3.3168397e+02 </wgt>
<wgt id='38'> +4.2386330e+02 </wgt>
<wgt id='39'> +3.0396549e+02 </wgt>
<wgt id='40'> +3.8925845e+02 </wgt>
<wgt id='41'> +5.0503198e+02 </wgt>
<wgt id='42'> +3.0464043e+02 </wgt>
<wgt id='43'> +3.8925845e+02 </wgt>
<wgt id='44'> +2.7933883e+02 </wgt>
<wgt id='45'> +5.0481800e+02 </wgt>
<wgt id='46'> +5.1877455e+02 </wgt>
<wgt id='47'> +5.1662825e+02 </wgt>
<wgt id='48'> +5.0523147e+02 </wgt>
<wgt id='49'> +4.8118837e+02 </wgt>
<wgt id='50'> +5.9460429e+02 </wgt>
<wgt id='51'> +4.8329862e+02 </wgt>
<wgt id='52'> +4.9226218e+02 </wgt>
<wgt id='53'> +4.9818284e+02 </wgt>
<wgt id='54'> +5.2589746e+02 </wgt>
<wgt id='55'> +5.2370083e+02 </wgt>
<wgt id='56'> +4.7035984e+02 </wgt>
<wgt id='57'> +5.2562794e+02 </wgt>
<wgt id='58'> +4.7631069e+02 </wgt>
<wgt id='59'> +5.4169532e+02 </wgt>
<wgt id='60'> +5.0966959e+02 </wgt>
<wgt id='61'> +4.4965585e+02 </wgt>
<wgt id='62'> +4.8134219e+02 </wgt>
<wgt id='63'> +5.1909835e+02 </wgt>
<wgt id='64'> +5.0157189e+02 </wgt>
<wgt id='65'> +5.0840274e+02 </wgt>
<wgt id='66'> +5.0224290e+02 </wgt>
<wgt id='67'> +5.0681497e+02 </wgt>
<wgt id='68'> +5.7950838e+02 </wgt>
<wgt id='69'> +5.2036368e+02 </wgt>
<wgt id='70'> +5.1549580e+02 </wgt>
<wgt id='71'> +4.9163904e+02 </wgt>
<wgt id='72'> +4.8005741e+02 </wgt>
<wgt id='73'> +4.7242072e+02 </wgt>
<wgt id='74'> +5.5297414e+02 </wgt>
<wgt id='75'> +5.2680242e+02 </wgt>
<wgt id='76'> +5.1126570e+02 </wgt>
<wgt id='77'> +4.9016571e+02 </wgt>
<wgt id='78'> +4.5763868e+02 </wgt>
<wgt id='79'> +5.1889753e+02 </wgt>
<wgt id='80'> +4.7082503e+02 </wgt>
<wgt id='81'> +5.0662122e+02 </wgt>
<wgt id='82'> +4.8759243e+02 </wgt>
<wgt id='83'> +5.0116848e+02 </wgt>
<wgt id='84'> +5.1563343e+02 </wgt>
<wgt id='85'> +4.8425753e+02 </wgt>
<wgt id='86'> +5.1600642e+02 </wgt>
<wgt id='87'> +5.0497963e+02 </wgt>
<wgt id='88'> +4.9563263e+02 </wgt>
<wgt id='89'> +4.7615392e+02 </wgt>
<wgt id='90'> +4.9770307e+02 </wgt>
<wgt id='91'> +4.7876286e+02 </wgt>
<wgt id='92'> +4.6932192e+02 </wgt>
<wgt id='93'> +5.0602692e+02 </wgt>
<wgt id='94'> +4.7638632e+02 </wgt>
<wgt id='95'> +5.2017313e+02 </wgt>
<wgt id='96'> +5.2963501e+02 </wgt>
<wgt id='97'> +4.7853224e+02 </wgt>
<wgt id='98'> +5.1570734e+02 </wgt>
<wgt id='99'> +4.5282191e+02 </wgt>
<wgt id='100'> +4.2827510e+02 </wgt>
<wgt id='101'> +5.7480129e+02 </wgt>
<wgt id='102'> +5.4559635e+02 </wgt>
<wgt id='103'> +5.1446938e+02 </wgt>
<wgt id='104'> +5.2225201e+02 </wgt>
<wgt id='105'> +5.2011841e+02 </wgt>
<wgt id='106'> +4.7602664e+02 </wgt>
<wgt id='107'> +4.8087866e+02 </wgt>
<wgt id='108'> +4.5938222e+02 </wgt>
<wgt id='109'> +4.9007726e+02 </wgt>
<wgt id='110'> +4.8516674e+02 </wgt>
<wgt id='111'> +4.9307630e+02 </wgt>
<wgt id='112'> +5.0248638e+02 </wgt>
<wgt id='113'> +4.9605862e+02 </wgt>
<wgt id='114'> +5.1015930e+02 </wgt>
<wgt id='115'> +4.6642778e+02 </wgt>
<wgt id='116'> +5.3773774e+02 </wgt>
<wgt id='117'> +4.9342048e+02 </wgt>
<wgt id='118'> +5.2701462e+02 </wgt>
<wgt id='119'> +5.2308060e+02 </wgt>
<wgt id='120'> +5.0064464e+02 </wgt>
<wgt id='121'> +5.0235197e+02 </wgt>
<wgt id='122'> +4.9837452e+02 </wgt>
<wgt id='123'> +4.9566505e+02 </wgt>
<wgt id='124'> +5.6618593e+02 </wgt>
<wgt id='125'> +5.9521893e+02 </wgt>
<wgt id='126'> +5.0613965e+02 </wgt>
<wgt id='127'> +5.0145840e+02 </wgt>
<wgt id='128'> +4.6907101e+02 </wgt>
<wgt id='129'> +5.4095959e+02 </wgt>
<wgt id='130'> +4.8613832e+02 </wgt>
<wgt id='131'> +4.9471663e+02 </wgt>
<wgt id='132'> +5.4876394e+02 </wgt>
<wgt id='133'> +5.3590120e+02 </wgt>
<wgt id='134'> +5.1242503e+02 </wgt>
<wgt id='135'> +4.9700805e+02 </wgt>
<wgt id='136'> +5.6486752e+02 </wgt>
<wgt id='137'> +5.0171274e+02 </wgt>
<wgt id='138'> +4.9341449e+02 </wgt>
<wgt id='139'> +5.2064337e+02 </wgt>
<wgt id='140'> +5.0317538e+02 </wgt>
<wgt id='141'> +5.3827659e+02 </wgt>
<wgt id='142'> +4.1859322e+02 </wgt>
<wgt id='143'> +5.2007543e+02 </wgt>
<wgt id='144'> +4.7786801e+02 </wgt>
<wgt id='145'> +4.8218951e+02 </wgt>
</rwgt>
</event>
<event>
 4      1 +5.0481800e+02 1.74434900e+02 7.54677100e-03 1.17330000e-01
       21 -1    0    0  501  502 +0.0000000000e+00 +0.0000000000e+00 +3.7036060074e+02 3.7036060074e+02 0.0000000000e+00 0.0000e+00 1.0000e+00
       21 -1    0    0  502  503 -0.0000000000e+00 -0.0000000000e+00 -1.1452796688e+02 1.1452796688e+02 0.0000000000e+00 0.0000e+00 1.0000e+00
        6  1    1    2  501    0 +2.0470785223e+01 -8.9151978512e+00 +2.5681168380e+02 3.1045092162e+02 1.7300000000e+02 0.0000e+00 1.0000e+00
       -6  1    1    2    0  503 -2.0470785223e+01 +8.9151978512e+00 -9.7904993789e-01 1.7443764599e+02 1.7300000000e+02 0.0000e+00 1.0000e+00
<mgrwt>
<rscale>  2 0.17443490E+03</rscale>
<asrwt>0</asrwt>
<pdfrwt beam="1">  1       21 0.56978554E-01 0.17443490E+03</pdfrwt>
<pdfrwt beam="2">  1       21 0.17619687E-01 0.17443490E+03</pdfrwt>
<totfact> 0.85145405E+04</totfact>
</mgrwt>
<rwgt>
<wgt id='1'> +6.4769496e+02 </wgt>
<wgt id='2'> +6.1457204e+02 </wgt>
<wgt id='3'> +5.0481800e+02 </wgt>
<wgt id='4'> +6.4769497e+02 </wgt>
<wgt id='5'> +4.7662179e+02 </wgt>
<wgt id='6'> +6.2236422e+02 </wgt>
<wgt id='7'> +5.8831942e+02 </wgt>
<wgt id='8'> +4.7565415e+02 </wgt>
<wgt id='9'> +6.2236422e+02 </wgt>
<wgt id='10'> +4.4844061e+02 </wgt>
<wgt id='11'> +5.8640960e+02 </wgt>
<wgt id='12'> +5.5356811e+02 </wgt>
<wgt id='13'> +4.4731854e+02 </wgt>
<wgt id='14'> +5.8640960e+02 </wgt>
<wgt id='15'> +4.2169383e+02 </wgt>
<wgt id='16'> +5.2536452e+02 </wgt>
<wgt id='17'> +5.0193889e+02 </wgt>
<wgt id='18'> +4.2371188e+02 </wgt>
<wgt id='19'> +5.2536452e+02 </wgt>
<wgt id='20'> +4.0191252e+02 </wgt>
<wgt id='21'> +4.8049760e+02 </wgt>
<wgt id='22'> +3.9923361e+02 </wgt>
<wgt id='23'> +5.0481800e+02 </wgt>
<wgt id='24'> +3.7814867e+02 </wgt>
<wgt id='25'> +4.7565415e+02 </wgt>
<wgt id='26'> +4.5211520e+02 </wgt>
<wgt id='27'> +3.7545052e+02 </wgt>
<wgt id='28'> +4.7565415e+02 </wgt>
<wgt id='29'> +3.5559439e+02 </wgt>
<wgt id='30'> +4.4095731e+02 </wgt>
<wgt id='31'> +4.2304483e+02 </wgt>
<wgt id='32'> +3.6097052e+02 </wgt>
<wgt id='33'> +4.4095731e+02 </wgt>
<wgt id='34'> +3.4343450e+02 </wgt>
<wgt id='35'> +4.2371188e+02 </wgt>
<wgt id='36'> +4.0497366e+02 </wgt>
<wgt id='37'> +3.4011688e+02 </wgt>
<wgt id='38'> +4.2371188e+02 </wgt>
<wgt id='39'> +3.2312828e+02 </wgt>
<wgt id='40'> +3.9923361e+02 </wgt>
<wgt id='41'> +3.8105236e+02 </wgt>
<wgt id='42'> +3.1985548e+02 </wgt>
<wgt id='43'> +3.9923361e+02 </wgt>
<wgt id='44'> +3.0385563e+02 </wgt>
<wgt id='45'> +5.0481800e+02 </wgt>
<wgt id='46'> +5.0508414e+02 </wgt>
<wgt id='47'> +5.2113061e+02 </wgt>
<wgt id='48'> +5.0574244e+02 </wgt>
<wgt id='49'> +5.0338410e+02 </wgt>
<wgt id='50'> +5.8561884e+02 </wgt>
<wgt id='51'> +4.9504548e+02 </wgt>
<wgt id='52'> +5.0269619e+02 </wgt>
<wgt id='53'> +5.0937038e+02 </wgt>
<wgt id='54'> +5.0787022e+02 </wgt>
<wgt id='55'> +4.5534758e+02 </wgt>
<wgt id='56'> +4.6990451e+02 </wgt>
<wgt id='57'> +4.9358784e+02 </wgt>
<wgt id='58'> +5.0834419e+02 </wgt>
<wgt id='59'> +5.0016827e+02 </wgt>
<wgt id='60'> +4.8688354e+02 </wgt>
<wgt id='61'> +4.8798503e+02 </wgt>
<wgt id='62'> +4.9789654e+02 </wgt>
<wgt id='63'> +5.0519364e+02 </wgt>
<wgt id='64'> +5.0010261e+02 </wgt>
<wgt id='65'> +5.8932416e+02 </wgt>
<wgt id='66'> +4.9284820e+02 </wgt>
<wgt id='67'> +5.0915679e+02 </wgt>
<wgt id='68'> +5.4083840e+02 </wgt>
<wgt id='69'> +4.9148747e+02 </wgt>
<wgt id='70'> +4.9681155e+02 </wgt>
<wgt id='71'> +5.1429175e+02 </wgt>
<wgt id='72'> +4.9340528e+02 </wgt>
<wgt id='73'> +4.9831098e+02 </wgt>
<wgt id='74'> +5.1987247e+02 </wgt>
<wgt id='75'> +5.1506328e+02 </wgt>
<wgt id='76'> +4.9170631e+02 </wgt>
<wgt id='77'> +4.8736097e+02 </wgt>
<wgt id='78'> +5.0365860e+02 </wgt>
<wgt id='79'> +4.8553867e+02 </wgt>
<wgt id='80'> +5.0015026e+02 </wgt>
<wgt id='81'> +4.9599776e+02 </wgt>
<wgt id='82'> +5.1639149e+02 </wgt>
<wgt id='83'> +5.1350672e+02 </wgt>
<wgt id='84'> +5.5129936e+02 </wgt>
<wgt id='85'> +5.2890740e+02 </wgt>
<wgt id='86'> +5.0114077e+02 </wgt>
<wgt id='87'> +5.0501659e+02 </wgt>
<wgt id='88'> +5.1173101e+02 </wgt>
<wgt id='89'> +5.1636196e+02 </wgt>
<wgt id='90'> +5.1139102e+02 </wgt>
<wgt id='91'> +5.3501047e+02 </wgt>
<wgt id='92'> +4.6742865e+02 </wgt>
<wgt id='93'> +4.9634239e+02 </wgt>
<wgt id='94'> +5.0215439e+02 </wgt>
<wgt id='95'> +4.8678668e+02 </wgt>
<wgt id='96'> +5.4240431e+02 </wgt>
<wgt id='97'> +5.1183964e+02 </wgt>
<wgt id='98'> +4.8277036e+02 </wgt>
<wgt id='99'> +4.9007749e+02 </wgt>
<wgt id='100'> +5.0024351e+02 </wgt>
<wgt id='101'> +5.3088424e+02 </wgt>
<wgt id='102'> +4.9156984e+02 </wgt>
<wgt id='103'> +5.4673532e+02 </wgt>
<wgt id='104'> +5.0323985e+02 </wgt>
<wgt id='105'> +5.2527176e+02 </wgt>
<wgt id='106'> +4.6638659e+02 </wgt>
<wgt id='107'> +4.9860117e+02 </wgt>
<wgt id='108'> +4.5364062e+02 </wgt>
<wgt id='109'> +4.7579809e+02 </wgt>
<wgt id='110'> +5.0615248e+02 </wgt>
<wgt id='111'> +4.9235517e+02 </wgt>
<wgt id='112'> +4.8180244e+02 </wgt>
<wgt id='113'> +4.6512160e+02 </wgt>
<wgt id='114'> +5.0366010e+02 </wgt>
<wgt id='115'> +5.0277016e+02 </wgt>
<wgt id='116'> +5.0426482e+02 </wgt>
<wgt id='117'> +5.1004963e+02 </wgt>
<wgt id='118'> +5.1719694e+02 </wgt>
<wgt id='119'> +4.8676980e+02 </wgt>
<wgt id='120'> +5.0067156e+02 </wgt>
<wgt id='121'> +4.9232457e+02 </wgt>
<wgt id='122'> +4.9881820e+02 </wgt>
<wgt id='123'> +5.0995905e+02 </wgt>
<wgt id='124'> +5.3884496e+02 </wgt>
<wgt id='125'> +5.4035271e+02 </wgt>
<wgt id='126'> +5.2253352e+02 </wgt>
<wgt id='127'> +5.1897735e+02 </wgt>
<wgt id='128'> +4.6792442e+02 </wgt>
<wgt id='129'> +5.7002854e+02 </wgt>
<wgt id='130'> +5.0643001e+02 </wgt>
<wgt id='131'> +5.3900913e+02 </wgt>
<wgt id='132'> +5.0294387e+02 </wgt>
<wgt id='133'> +5.0201420e+02 </wgt>
<wgt id='134'> +4.7707017e+02 </wgt>
<wgt id='135'> +5.1727273e+02 </wgt>
<wgt id='136'> +4.8804178e+02 </wgt>
<wgt id='137'> +4.7552636e+02 </wgt>
<wgt id='138'> +4.5861020e+02 </wgt>
<wgt id='139'> +5.1469181e+02 </wgt>
<wgt id='140'> +5.3492763e+02 </wgt>
<wgt id='141'> +5.0401275e+02 </wgt>
<wgt id='142'> +5.0631110e+02 </wgt>
<wgt id='143'> +5.0229628e+02 </wgt>
<wgt id='144'> +5.0494735e+02 </wgt>
<wgt id='145'> +5.0580666e+02 </wgt>
</rwgt>
</event>
<event>
 4      1 +5.0481800e+02 1.80917100e+02 7.54677100e-03 1.16691800e-01
       21 -1    0    0  501  502 +0.0000000000e+00 +0.0000000000e+00 +6.4840107017e+02 6.4840107017e+02 0.0000000000e+00 0.0000e+00 1.0000e+00
       21 -1    0    0  502  503 -0.0000000000e+00 -0.0000000000e+00 -8.2083202601e+01 8.2083202601e+01 0.0000000000e+00 0.0000e+00 -1.0000e+00
        6  1    1    2  501    0 +4.5800054921e+01 +2.6539511823e+01 +5.0979154620e+02 5.4094215152e+02 1.7300000000e+02 0.0000e+00 1.0000e+00
       -6  1    1    2    0  503 -4.5800054921e+01 -2.6539511823e+01 +5.6526321366e+01 1.8954212124e+02 1.7300000000e+02 0.0000e+00 -1.0000e+00
<mgrwt>
<rscale>  2 0.18091708E+03</rscale>
<asrwt>0</asrwt>
<pdfrwt beam="1">  1       21 0.99754007E-01 0.18091708E+03</pdfrwt>
<pdfrwt beam="2">  1       21 0.12628185E-01 0.18091708E+03</pdfrwt>
<totfact> 0.44490150E+04</totfact>
</mgrwt>
<rwgt>
<wgt id='1'> +6.5682221e+02 </wgt>
<wgt id='2'> +6.5054737e+02 </wgt>
<wgt id='3'> +5.0481800e+02 </wgt>
<wgt id='4'> +6.5682220e+02 </wgt>
<wgt id='5'> +4.6207118e+02 </wgt>
<wgt id='6'> +6.2127232e+02 </wgt>
<wgt id='7'> +6.1498876e+02 </wgt>
<wgt id='8'> +4.6900979e+02 </wgt>
<wgt id='9'> +6.2127232e+02 </wgt>
<wgt id='10'> +4.2904487e+02 </wgt>
<wgt id='11'> +5.7720367e+02 </wgt>
<wgt id='12'> +5.7123044e+02 </wgt>
<wgt id='13'> +4.3558621e+02 </wgt>
<wgt id='14'> +5.7720367e+02 </wgt>
<wgt id='15'> +3.9857691e+02 </wgt>
<wgt id='16'> +5.3370424e+02 </wgt>
<wgt id='17'> +5.2919943e+02 </wgt>
<wgt id='18'> +4.2421819e+02 </wgt>
<wgt id='19'> +5.3370424e+02 </wgt>
<wgt id='20'> +3.9049321e+02 </wgt>
<wgt id='21'> +5.0027363e+02 </wgt>
<wgt id='22'> +3.9412716e+02 </wgt>
<wgt id='23'> +5.0481800e+02 </wgt>
<wgt id='24'> +3.6258289e+02 </wgt>
<wgt id='25'> +4.6900979e+02 </wgt>
<wgt id='26'> +4.6467765e+02 </wgt>
<wgt id='27'> +3.6604002e+02 </wgt>
<wgt id='28'> +4.6900979e+02 </wgt>
<wgt id='29'> +3.3683463e+02 </wgt>
<wgt id='30'> +4.4849243e+02 </wgt>
<wgt id='31'> +4.4504285e+02 </wgt>
<wgt id='32'> +3.6164450e+02 </wgt>
<wgt id='33'> +4.4849242e+02 </wgt>
<wgt id='34'> +3.3434285e+02 </wgt>
<wgt id='35'> +4.2421819e+02 </wgt>
<wgt id='36'> +4.2071701e+02 </wgt>
<wgt id='37'> +3.3599201e+02 </wgt>
<wgt id='38'> +4.2421819e+02 </wgt>
<wgt id='39'> +3.1044585e+02 </wgt>
<wgt id='40'> +3.9412717e+02 </wgt>
<wgt id='41'> +3.9078172e+02 </wgt>
<wgt id='42'> +3.1204782e+02 </wgt>
<wgt id='43'> +3.9412716e+02 </wgt>
<wgt id='44'> +2.8840002e+02 </wgt>
<wgt id='45'> +5.0481800e+02 </wgt>
<wgt id='46'> +5.1419683e+02 </wgt>
<wgt id='47'> +5.1969598e+02 </wgt>
<wgt id='48'> +5.0724374e+02 </wgt>
<wgt id='49'> +4.9625670e+02 </wgt>
<wgt id='50'> +5.9729358e+02 </wgt>
<wgt id='51'> +4.9179629e+02 </wgt>
<wgt id='52'> +5.0303989e+02 </wgt>
<wgt id='53'> +4.9976041e+02 </wgt>
<wgt id='54'> +5.1341498e+02 </wgt>
<wgt id='55'> +4.7896432e+02 </wgt>
<wgt id='56'> +4.6316917e+02 </wgt>
<wgt id='57'> +5.0684585e+02 </wgt>
<wgt id='58'> +4.9497080e+02 </wgt>
<wgt id='59'> +5.2189044e+02 </wgt>
<wgt id='60'> +5.0199911e+02 </wgt>
<wgt id='61'> +4.4924639e+02 </wgt>
<wgt id='62'> +4.9421550e+02 </wgt>
<wgt id='63'> +5.0776357e+02 </wgt>
<wgt id='64'> +4.9670070e+02 </wgt>
<wgt id='65'> +5.5964370e+02 </wgt>
<wgt id='66'> +4.9603951e+02 </wgt>
<wgt id='67'> +5.0776885e+02 </wgt>
<wgt id='68'> +5.5544845e+02 </wgt>
<wgt id='69'> +5.0297843e+02 </wgt>
<wgt id='70'> +4.9960859e+02 </wgt>
<wgt id='71'> +5.0871624e+02 </wgt>
<wgt id='72'> +4.8698902e+02 </wgt>
<wgt id='73'> +4.8875592e+02 </wgt>
<wgt id='74'> +5.3316823e+02 </wgt>
<wgt id='75'> +5.1669719e+02 </wgt>
<wgt id='76'> +4.9890501e+02 </wgt>
<wgt id='77'> +4.9348438e+02 </wgt>
<wgt id='78'> +4.8344158e+02 </wgt>
<wgt id='79'> +4.9873055e+02 </wgt>
<wgt id='80'> +4.9063559e+02 </wgt>
<wgt id='81'> +4.9652400e+02 </wgt>
<wgt id='82'> +4.9876150e+02 </wgt>
<wgt id='83'> +5.0987007e+02 </wgt>
<wgt id='84'> +5.4025205e+02 </wgt>
<wgt id='85'> +5.1311019e+02 </wgt>
<wgt id='86'> +5.0706897e+02 </wgt>
<wgt id='87'> +5.0746587e+02 </wgt>
<wgt id='88'> +5.0654828e+02 </wgt>
<wgt id='89'> +5.0857142e+02 </wgt>
<wgt id='90'> +5.1262435e+02 </wgt>
<wgt id='91'> +5.1565892e+02 </wgt>
<wgt id='92'> +4.6364125e+02 </wgt>
<wgt id='93'> +5.0176257e+02 </wgt>
<wgt id='94'> +4.9118451e+02 </wgt>
<wgt id='95'> +4.9940050e+02 </wgt>
<wgt id='96'> +5.3890738e+02 </wgt>
<wgt id='97'> +4.9903700e+02 </wgt>
<wgt id='98'> +4.9460501e+02 </wgt>
<wgt id='99'> +4.7786971e+02 </wgt>
<wgt id='100'> +4.7110092e+02 </wgt>
<wgt id='101'> +5.5445276e+02 </wgt>
<wgt id='102'> +5.1722221e+02 </wgt>
<wgt id='103'> +5.4063569e+02 </wgt>
<wgt id='104'> +5.0941361e+02 </wgt>
<wgt id='105'> +5.2184652e+02 </wgt>
<wgt id='106'> +4.6353363e+02 </wgt>
<wgt id='107'> +4.8412185e+02 </wgt>
<wgt id='108'> +4.4881681e+02 </wgt>
<wgt id='109'> +4.7757943e+02 </wgt>
<wgt id='110'> +4.9989295e+02 </wgt>
<wgt id='111'> +4.9177762e+02 </wgt>
<wgt id='112'> +4.8139356e+02 </wgt>
<wgt id='113'> +4.7082825e+02 </wgt>
<wgt id='114'> +4.9789280e+02 </wgt>
<wgt id='115'> +4.8097394e+02 </wgt>
<wgt id='116'> +5.2052062e+02 </wgt>
<wgt id='117'> +5.0002653e+02 </wgt>
<wgt id='118'> +5.2688594e+02 </wgt>
<wgt id='119'> +4.9543480e+02 </wgt>
<wgt id='120'> +4.9459495e+02 </wgt>
<wgt id='121'> +4.9632991e+02 </wgt>
<wgt id='122'> +4.9914436e+02 </wgt>
<wgt id='123'> +5.0677463e+02 </wgt>
<wgt id='124'> +5.5565979e+02 </wgt>
<wgt id='125'> +5.6242885e+02 </wgt>
<wgt id='126'> +5.1866333e+02 </wgt>
<wgt id='127'> +5.1612235e+02 </wgt>
<wgt id='128'> +4.6111153e+02 </wgt>
<wgt id='129'> +5.6323719e+02 </wgt>
<wgt id='130'> +5.0016198e+02 </wgt>
<wgt id='131'> +5.2469262e+02 </wgt>
<wgt id='132'> +5.2789341e+02 </wgt>
<wgt id='133'> +5.1771739e+02 </wgt>
<wgt id='134'> +4.9121876e+02 </wgt>
<wgt id='135'> +5.1101586e+02 </wgt>
<wgt id='136'> +5.2073892e+02 </wgt>
<wgt id='137'> +4.8406374e+02 </wgt>
<wgt id='138'> +4.7327572e+02 </wgt>
<wgt id='139'> +5.1929835e+02 </wgt>
<wgt id='140'> +5.2002458e+02 </wgt>
<wgt id='141'> +5.1416006e+02 </wgt>
<wgt id='142'> +4.7629288e+02 </wgt>
<wgt id='143'> +5.1365004e+02 </wgt>
<wgt id='144'> +4.9461541e+02 </wgt>
<wgt id='145'> +4.9964968e+02 </wgt>
</rwgt>
</event>
<event>
 4      1 +5.0481800e+02 2.22944700e+02 7.54677100e-03 1.13170700e-01
       21 -1    0    0  501  502 +0.0000000000e+00 +0.0000000000e+00 +2.1808048758e+02 2.1808048758e+02 0.0000000000e+00 0.0000e+00 1.0000e+00
       21 -1    0    0  502  503 -0.0000000000e+00 -0.0000000000e+00 -2.8530713983e+02 2.8530713983e+02 0.0000000000e+00 0.0000e+00 1.0000e+00
        6  1    1    2  501    0 +7.4800698071e+01 +1.1908057496e+02 +7.9270968083e+01 2.3661828785e+02 1.7300000000e+02 0.0000e+00 1.0000e+00
       -6  1    1    2    0  503 -7.4800698071e+01 -1.1908057496e+02 -1.4649762034e+02 2.6676933956e+02 1.7300000000e+02 0.0000e+00 1.0000e+00
<mgrwt>
<rscale>  2 0.22294467E+03</rscale>
<asrwt>0</asrwt>
<pdfrwt beam="1">  1       21 0.33550844E-01 0.22294467E+03</pdfrwt>
<pdfrwt beam="2">  1       21 0.43893406E-01 0.22294467E+03</pdfrwt>
<totfact> 0.42040146E+04</totfact>
</mgrwt>
<rwgt>
<wgt id='1'> +6.5176625e+02 </wgt>
<wgt id='2'> +5.2927260e+02 </wgt>
<wgt id='3'> +5.0481800e+02 </wgt>
<wgt id='4'> +6.5176624e+02 </wgt>
<wgt id='5'> +4.8507042e+02 </wgt>
<wgt id='6'> +6.1455116e+02 </wgt>
<wgt id='7'> +4.9286806e+02 </wgt>
<wgt id='8'> +4.7010170e+02 </wgt>
<wgt id='9'> +6.1455115e+02 </wgt>
<wgt id='10'> +4.5174558e+02 </wgt>
<wgt id='11'> +5.7228852e+02 </wgt>
<wgt id='12'> +4.5916155e+02 </wgt>
<wgt id='13'> +4.3802072e+02 </wgt>
<wgt id='14'> +5.7228852e+02 </wgt>
<wgt id='15'> +4.2098092e+02 </wgt>
<wgt id='16'> +5.3538803e+02 </wgt>
<wgt id='17'> +4.4576822e+02 </wgt>
<wgt id='18'> +4.2633742e+02 </wgt>
<wgt id='19'> +5.3538803e+02 </wgt>
<wgt id='20'> +4.1057786e+02 </wgt>
<wgt id='21'> +4.1510730e+02 </wgt>
<wgt id='22'> +3.9701823e+02 </wgt>
<wgt id='23'> +5.0481800e+02 </wgt>
<wgt id='24'> +3.8237074e+02 </wgt>
<wgt id='25'> +4.7010170e+02 </wgt>
<wgt id='26'> +3.8671873e+02 </wgt>
<wgt id='27'> +3.6992466e+02 </wgt>
<wgt id='28'> +4.7010170e+02 </wgt>
<wgt id='29'> +3.5633062e+02 </wgt>
<wgt id='30'> +4.5215494e+02 </wgt>
<wgt id='31'> +3.8054901e+02 </wgt>
<wgt id='32'> +3.6481567e+02 </wgt>
<wgt id='33'> +4.5215494e+02 </wgt>
<wgt id='34'> +3.5201478e+02 </wgt>
<wgt id='35'> +4.2633742e+02 </wgt>
<wgt id='36'> +3.5437401e+02 </wgt>
<wgt id='37'> +3.3972732e+02 </wgt>
<wgt id='38'> +4.2633742e+02 </wgt>
<wgt id='39'> +3.2783101e+02 </wgt>
<wgt id='40'> +3.9701823e+02 </wgt>
<wgt id='41'> +3.3013890e+02 </wgt>
<wgt id='42'> +3.1654343e+02 </wgt>
<wgt id='43'> +3.9701823e+02 </wgt>
<wgt id='44'> +3.0550514e+02 </wgt>
<wgt id='45'> +5.0481800e+02 </wgt>
<wgt id='46'> +5.0717549e+02 </wgt>
<wgt id='47'> +5.2480608e+02 </wgt>
<wgt id='48'> +5.0806207e+02 </wgt>
<wgt id='49'> +5.0381768e+02 </wgt>
<wgt id='50'> +5.9700976e+02 </wgt>
<wgt id='51'> +4.9517382e+02 </wgt>
<wgt id='52'> +5.0226063e+02 </wgt>
<wgt id='53'> +5.0946624e+02 </wgt>
<wgt id='54'> +5.0765626e+02 </wgt>
<wgt id='55'> +4.4909331e+02 </wgt>
<wgt id='56'> +4.6709157e+02 </wgt>
<wgt id='57'> +4.9031066e+02 </wgt>
<wgt id='58'> +5.0594104e+02 </wgt>
<wgt id='59'> +4.9878316e+02 </wgt>
<wgt id='60'> +4.8554203e+02 </wgt>
<wgt id='61'> +4.8854212e+02 </wgt>
<wgt id='62'> +4.9887613e+02 </wgt>
<wgt id='63'> +5.0529917e+02 </wgt>
<wgt id='64'> +4.9795468e+02 </wgt>
<wgt id='65'> +5.9739737e+02 </wgt>
<wgt id='66'> +4.9337205e+02 </wgt>
<wgt id='67'> +5.0942828e+02 </wgt>
<wgt id='68'> +5.4348698e+02 </wgt>
<wgt id='69'> +4.9575431e+02 </wgt>
<wgt id='70'> +4.9581600e+02 </wgt>
<wgt id='71'> +5.1427923e+02 </wgt>
<wgt id='72'> +4.8525345e+02 </wgt>
<wgt id='73'> +4.9701136e+02 </wgt>
<wgt id='74'> +5.2238898e+02 </wgt>
<wgt id='75'> +5.1703860e+02 </wgt>
<wgt id='76'> +4.8875736e+02 </wgt>
<wgt id='77'> +4.8740444e+02 </wgt>
<wgt id='78'> +5.0307761e+02 </wgt>
<wgt id='79'> +4.8517470e+02 </wgt>
<wgt id='80'> +4.9975251e+02 </wgt>
<wgt id='81'> +4.9437192e+02 </wgt>
<wgt id='82'> +5.1787724e+02 </wgt>
<wgt id='83'> +5.1724143e+02 </wgt>
<wgt id='84'> +5.5705287e+02 </wgt>
<wgt id='85'> +5.3227127e+02 </wgt>
<wgt id='86'> +5.0320769e+02 </wgt>
<wgt id='87'> +5.0562705e+02 </wgt>
<wgt id='88'> +5.1501038e+02 </wgt>
<wgt id='89'> +5.1809906e+02 </wgt>
<wgt id='90'> +5.1097261e+02 </wgt>
<wgt id='91'> +5.3734114e+02 </wgt>
<wgt id='92'> +4.5891084e+02 </wgt>
<wgt id='93'> +4.9744112e+02 </wgt>
<wgt id='94'> +5.0041575e+02 </wgt>
<wgt id='95'> +4.8202168e+02 </wgt>
<wgt id='96'> +5.4995431e+02 </wgt>
<wgt id='97'> +5.1153648e+02 </wgt>
<wgt id='98'> +4.8156106e+02 </wgt>
<wgt id='99'> +4.8924772e+02 </wgt>
<wgt id='100'> +4.9718987e+02 </wgt>
<wgt id='101'> +5.3468882e+02 </wgt>
<wgt id='102'> +4.9374818e+02 </wgt>
<wgt id='103'> +5.5079179e+02 </wgt>
<wgt id='104'> +5.0553838e+02 </wgt>
<wgt id='105'> +5.2278865e+02 </wgt>
<wgt id='106'> +4.5967746e+02 </wgt>
<wgt id='107'> +4.9461336e+02 </wgt>
<wgt id='108'> +4.4814494e+02 </wgt>
<wgt id='109'> +4.7125185e+02 </wgt>
<wgt id='110'> +5.0480421e+02 </wgt>
<wgt id='111'> +4.8988869e+02 </wgt>
<wgt id='112'> +4.7952152e+02 </wgt>
<wgt id='113'> +4.6094254e+02 </wgt>
<wgt id='114'> +4.9948083e+02 </wgt>
<wgt id='115'> +5.0273171e+02 </wgt>
<wgt id='116'> +5.0790096e+02 </wgt>
<wgt id='117'> +5.1067603e+02 </wgt>
<wgt id='118'> +5.2075738e+02 </wgt>
<wgt id='119'> +4.8338317e+02 </wgt>
<wgt id='120'> +5.0106659e+02 </wgt>
<wgt id='121'> +4.8865388e+02 </wgt>
<wgt id='122'> +4.9754757e+02 </wgt>
<wgt id='123'> +5.1275854e+02 </wgt>
<wgt id='124'> +5.4293505e+02 </wgt>
<wgt id='125'> +5.4367297e+02 </wgt>
<wgt id='126'> +5.2639121e+02 </wgt>
<wgt id='127'> +5.2128774e+02 </wgt>
<wgt id='128'> +4.6698849e+02 </wgt>
<wgt id='129'> +5.7335770e+02 </wgt>
<wgt id='130'> +5.1045488e+02 </wgt>
<wgt id='131'> +5.4119757e+02 </wgt>
<wgt id='132'> +5.0036778e+02 </wgt>
<wgt id='133'> +5.0360275e+02 </wgt>
<wgt id='134'> +4.7447250e+02 </wgt>
<wgt id='135'> +5.1797379e+02 </wgt>
<wgt id='136'> +4.8417148e+02 </wgt>
<wgt id='137'> +4.7640398e+02 </wgt>
<wgt id='138'> +4.6225480e+02 </wgt>
<wgt id='139'> +5.1574098e+02 </wgt>
<wgt id='140'> +5.3583811e+02 </wgt>
<wgt id='141'> +5.0487395e+02 </wgt>
<wgt id='142'> +5.0589177e+02 </wgt>
<wgt id='143'> +5.0096593e+02 </wgt>
<wgt id='144'> +5.0243003e+02 </wgt>
<wgt id='145'> +5.0611704e+02 </wgt>
</rwgt>
</event>
<event>
 4      1 +5.0481800e+02 2.09817900e+02 7.54677100e-03 1.14171000e-01
       21 -1    0    0  503  502 +0.0000000000e+00 +0.0000000000e+00 +1.0854163495e+02 1.0854163495e+02 0.0000000000e+00 0.0000e+00 -1.0000e+00
       21 -1    0    0  501  503 -0.0000000000e+00 -0.0000000000e+00 -6.2876658979e+02 6.2876658979e+02 0.0000000000e+00 0.0000e+00 -1.0000e+00
        6  1    1    2  501    0 +6.0586652950e+01 +1.0209700464e+02 -4.7974539239e+02 5.2362122034e+02 1.7300000000e+02 0.0000e+00 -1.0000e+00
       -6  1    1    2    0  502 -6.0586652950e+01 -1.0209700464e+02 -4.0479562443e+01 2.1368700440e+02 1.7300000000e+02 0.0000e+00 -1.0000e+00
<mgrwt>
<rscale>  2 0.20981788E+03</rscale>
<asrwt>0</asrwt>
<pdfrwt beam="1">  1       21 0.16698713E-01 0.20981788E+03</pdfrwt>
<pdfrwt beam="2">  1       21 0.96733320E-01 0.20981788E+03</pdfrwt>
<totfact> 0.28345409E+04</totfact>
</mgrwt>
<rwgt>
<wgt id='1'> +6.5929107e+02 </wgt>
<wgt id='2'> +5.5393204e+02 </wgt>
<wgt id='3'> +5.0481800e+02 </wgt>
<wgt id='4'> +6.5929108e+02 </wgt>
<wgt id='5'> +4.6556492e+02 </wgt>
<wgt id='6'> +6.1664975e+02 </wgt>
<wgt id='7'> +5.1193714e+02 </wgt>
<wgt id='8'> +4.6570159e+02 </wgt>
<wgt id='9'> +6.1664976e+02 </wgt>
<wgt id='10'> +4.2966535e+02 </wgt>
<wgt id='11'> +5.6886793e+02 </wgt>
<wgt id='12'> +4.7262806e+02 </wgt>
<wgt id='13'> +4.3014400e+02 </wgt>
<wgt id='14'> +5.6886794e+02 </wgt>
<wgt id='15'> +3.9704966e+02 </wgt>
<wgt id='16'> +5.3972616e+02 </wgt>
<wgt id='17'> +4.6388790e+02 </wgt>
<wgt id='18'> +4.2584899e+02 </wgt>
<wgt id='19'> +5.3972616e+02 </wgt>
<wgt id='20'> +3.9442993e+02 </wgt>
<wgt id='21'> +4.2871946e+02 </wgt>
<wgt id='22'> +3.9285158e+02 </wgt>
<wgt id='23'> +5.0481800e+02 </wgt>
<wgt id='24'> +3.6401556e+02 </wgt>
<wgt id='25'> +4.6570159e+02 </wgt>
<wgt id='26'> +3.9580025e+02 </wgt>
<wgt id='27'> +3.6285628e+02 </wgt>
<wgt id='28'> +4.6570159e+02 </wgt>
<wgt id='29'> +3.3638331e+02 </wgt>
<wgt id='30'> +4.5529643e+02 </wgt>
<wgt id='31'> +3.9474111e+02 </wgt>
<wgt id='32'> +3.6400923e+02 </wgt>
<wgt id='33'> +4.5529644e+02 </wgt>
<wgt id='34'> +3.3843606e+02 </wgt>
<wgt id='35'> +4.2584898e+02 </wgt>
<wgt id='36'> +3.6481485e+02 </wgt>
<wgt id='37'> +3.3580355e+02 </wgt>
<wgt id='38'> +4.2584899e+02 </wgt>
<wgt id='39'> +3.1233936e+02 </wgt>
<wgt id='40'> +3.9285158e+02 </wgt>
<wgt id='41'> +3.3680255e+02 </wgt>
<wgt id='42'> +3.1016402e+02 </wgt>
<wgt id='43'> +3.9285158e+02 </wgt>
<wgt id='44'> +2.8862983e+02 </wgt>
<wgt id='45'> +5.0481800e+02 </wgt>
<wgt id='46'> +5.1506189e+02 </wgt>
<wgt id='47'> +5.2190040e+02 </wgt>
<wgt id='48'> +5.0851549e+02 </wgt>
<wgt id='49'> +4.9642506e+02 </wgt>
<wgt id='50'> +6.0369224e+02 </wgt>
<wgt id='51'> +4.9190102e+02 </wgt>
<wgt id='52'> +5.0268162e+02 </wgt>
<wgt id='53'> +5.0021604e+02 </wgt>
<wgt id='54'> +5.1316633e+02 </wgt>
<wgt id='55'> +4.7519136e+02 </wgt>
<wgt id='56'> +4.6148947e+02 </wgt>
<wgt id='57'> +5.0504413e+02 </wgt>
<wgt id='58'> +4.9376145e+02 </wgt>
<wgt id='59'> +5.2076080e+02 </wgt>
<wgt id='60'> +5.0044419e+02 </wgt>
<wgt id='61'> +4.4930437e+02 </wgt>
<wgt id='62'> +4.9467415e+02 </wgt>
<wgt id='63'> +5.0756861e+02 </wgt>
<wgt id='64'> +4.9540775e+02 </wgt>
<wgt id='65'> +5.6518431e+02 </wgt>
<wgt id='66'> +4.9623554e+02 </wgt>
<wgt id='67'> +5.0795747e+02 </wgt>
<wgt id='68'> +5.5687515e+02 </wgt>
<wgt id='69'> +5.0525943e+02 </wgt>
<wgt id='70'> +4.9902366e+02 </wgt>
<wgt id='71'> +5.0903674e+02 </wgt>
<wgt id='72'> +4.8306630e+02 </wgt>
<wgt id='73'> +4.8807115e+02 </wgt>
<wgt id='74'> +5.3428390e+02 </wgt>
<wgt id='75'> +5.1780051e+02 </wgt>
<wgt id='76'> +4.9739711e+02 </wgt>
<wgt id='77'> +4.9319098e+02 </wgt>
<wgt id='78'> +4.8350462e+02 </wgt>
<wgt id='79'> +4.9810154e+02 </wgt>
<wgt id='80'> +4.9047310e+02 </wgt>
<wgt id='81'> +4.9565339e+02 </wgt>
<wgt id='82'> +4.9977100e+02 </wgt>
<wgt id='83'> +5.1207930e+02 </wgt>
<wgt id='84'> +5.4376449e+02 </wgt>
<wgt id='85'> +5.1494121e+02 </wgt>
<wgt id='86'> +5.0802113e+02 </wgt>
<wgt id='87'> +5.0764661e+02 </wgt>
<wgt id='88'> +5.0853314e+02 </wgt>
<wgt id='89'> +5.0937719e+02 </wgt>
<wgt id='90'> +5.1244163e+02 </wgt>
<wgt id='91'> +5.1726238e+02 </wgt>
<wgt id='92'> +4.5948113e+02 </wgt>
<wgt id='93'> +5.0207288e+02 </wgt>
<wgt id='94'> +4.9053913e+02 </wgt>
<wgt id='95'> +4.9682250e+02 </wgt>
<wgt id='96'> +5.4280377e+02 </wgt>
<wgt id='97'> +4.9922459e+02 </wgt>
<wgt id='98'> +4.9395624e+02 </wgt>
<wgt id='99'> +4.7740818e+02 </wgt>
<wgt id='100'> +4.6999680e+02 </wgt>
<wgt id='101'> +5.5611875e+02 </wgt>
<wgt id='102'> +5.1788964e+02 </wgt>
<wgt id='103'> +5.4280931e+02 </wgt>
<wgt id='104'> +5.1071063e+02 </wgt>
<wgt id='105'> +5.2081508e+02 </wgt>
<wgt id='106'> +4.6020810e+02 </wgt>
<wgt id='107'> +4.8236535e+02 </wgt>
<wgt id='108'> +4.4600591e+02 </wgt>
<wgt id='109'> +4.7509712e+02 </wgt>
<wgt id='110'> +4.9908068e+02 </wgt>
<wgt id='111'> +4.9069497e+02 </wgt>
<wgt id='112'> +4.7988765e+02 </wgt>
<wgt id='113'> +4.6848728e+02 </wgt>
<wgt id='114'> +4.9595484e+02 </wgt>
<wgt id='115'> +4.8174249e+02 </wgt>
<wgt id='116'> +5.2216349e+02 </wgt>
<wgt id='117'> +5.0067214e+02 </wgt>
<wgt id='118'> +5.2850556e+02 </wgt>
<wgt id='119'> +4.9337191e+02 </wgt>
<wgt id='120'> +4.9476735e+02 </wgt>
<wgt id='121'> +4.9419239e+02 </wgt>
<wgt id='122'> +4.9860869e+02 </wgt>
<wgt id='123'> +5.0835037e+02 </wgt>
<wgt id='124'> +5.5764755e+02 </wgt>
<wgt id='125'> +5.6391790e+02 </wgt>
<wgt id='126'> +5.2063669e+02 </wgt>
<wgt id='127'> +5.1729488e+02 </wgt>
<wgt id='128'> +4.6079701e+02 </wgt>
<wgt id='129'> +5.6529351e+02 </wgt>
<wgt id='130'> +5.0229353e+02 </wgt>
<wgt id='131'> +5.2601505e+02 </wgt>
<wgt id='132'> +5.2614021e+02 </wgt>
<wgt id='133'> +5.1817713e+02 </wgt>
<wgt id='134'> +4.8956738e+02 </wgt>
<wgt id='135'> +5.1145770e+02 </wgt>
<wgt id='136'> +5.1814668e+02 </wgt>
<wgt id='137'> +4.8450241e+02 </wgt>
<wgt id='138'> +4.7495921e+02 </wgt>
<wgt id='139'> +5.1960984e+02 </wgt>
<wgt id='140'> +5.2078093e+02 </wgt>
<wgt id='141'> +5.1454320e+02 </wgt>
<wgt id='142'> +4.7597475e+02 </wgt>
<wgt id='143'> +5.1269935e+02 </wgt>
<wgt id='144'> +4.9342628e+02 </wgt>
<wgt id='145'> +5.0030818e+02 </wgt>
</rwgt>
</event>
<event>
 4      1 +5.0481800e+02 1.78696200e+02 7.54677100e-03 1.16907100e-01
       21 -1    0    0  501  502 +0.0000000000e+00 +0.0000000000e+00 +1.0516326824e+02 1.0516326824e+02 0.0000000000e+00 0.0000e+00 -1.0000e+00
       21 -1    0    0  502  503 -0.0000000000e+00 -0.0000000000e+00 -3.0374114096e+02 3.0374114096e+02 0.0000000000e+00 0.0000e+00 -1.0000e+00
        6  1    1    2  501    0 -4.4180017678e+01 -7.1745071886e+00 -1.0291791096e+02 2.0621455795e+02 1.7300000000e+02 0.0000e+00 -1.0000e+00
       -6  1    1    2    0  503 +4.4180017678e+01 +7.1745071886e+00 -9.5659961760e+01 2.0268985125e+02 1.7300000000e+02 0.0000e+00 -1.0000e+00
<mgrwt>
<rscale>  2 0.17869624E+03</rscale>
<asrwt>0</asrwt>
<pdfrwt beam="1">  1       21 0.16178965E-01 0.17869624E+03</pdfrwt>
<pdfrwt beam="2">  1       21 0.46729406E-01 0.17869624E+03</pdfrwt>
<totfact> 0.15048085E+05</totfact>
</mgrwt>
<rwgt>
<wgt id='1'> +6.4039972e+02 </wgt>
<wgt id='2'> +6.5438345e+02 </wgt>
<wgt id='3'> +5.0481800e+02 </wgt>
<wgt id='4'> +6.4039972e+02 </wgt>
<wgt id='5'> +5.0479150e+02 </wgt>
<wgt id='6'> +6.2165431e+02 </wgt>
<wgt id='7'> +6.3616693e+02 </wgt>
<wgt id='8'> +4.8002998e+02 </wgt>
<wgt id='9'> +6.2165430e+02 </wgt>
<wgt id='10'> +4.8000369e+02 </wgt>
<wgt id='11'> +5.9112929e+02 </wgt>
<wgt id='12'> +6.0554564e+02 </wgt>
<wgt id='13'> +4.5528849e+02 </wgt>
<wgt id='14'> +5.9112928e+02 </wgt>
<wgt id='15'> +4.5526343e+02 </wgt>
<wgt id='16'> +5.2004032e+02 </wgt>
<wgt id='17'> +5.2993999e+02 </wgt>
<wgt id='18'> +4.2405118e+02 </wgt>
<wgt id='19'> +5.2004032e+02 </wgt>
<wgt id='20'> +4.2403108e+02 </wgt>
<wgt id='21'> +5.1518769e+02 </wgt>
<wgt id='22'> +4.0322904e+02 </wgt>
<wgt id='23'> +5.0481800e+02 </wgt>
<wgt id='24'> +4.0320901e+02 </wgt>
<wgt id='25'> +4.8002998e+02 </wgt>
<wgt id='26'> +4.9038963e+02 </wgt>
<wgt id='27'> +3.8244599e+02 </wgt>
<wgt id='28'> +4.8002998e+02 </wgt>
<wgt id='29'> +3.8242689e+02 </wgt>
<wgt id='30'> +4.3683805e+02 </wgt>
<wgt id='31'> +4.4421759e+02 </wgt>
<wgt id='32'> +3.6142046e+02 </wgt>
<wgt id='33'> +4.3683805e+02 </wgt>
<wgt id='34'> +3.6140438e+02 </wgt>
<wgt id='35'> +4.2405118e+02 </wgt>
<wgt id='36'> +4.3185160e+02 </wgt>
<wgt id='37'> +3.4367367e+02 </wgt>
<wgt id='38'> +4.2405118e+02 </wgt>
<wgt id='39'> +3.4365760e+02 </wgt>
<wgt id='40'> +4.0322904e+02 </wgt>
<wgt id='41'> +4.1106484e+02 </wgt>
<wgt id='42'> +3.2596020e+02 </wgt>
<wgt id='43'> +4.0322904e+02 </wgt>
<wgt id='44'> +3.2594486e+02 </wgt>
<wgt id='45'> +5.0481800e+02 </wgt>
<wgt id='46'> +5.0161020e+02 </wgt>
<wgt id='47'> +5.1928540e+02 </wgt>
<wgt id='48'> +5.0371958e+02 </wgt>
<wgt id='49'> +5.0395185e+02 </wgt>
<wgt id='50'> +5.7533255e+02 </wgt>
<wgt id='51'> +4.9528967e+02 </wgt>
<wgt id='52'> +5.0172401e+02 </wgt>
<wgt id='53'> +5.1235531e+02 </wgt>
<wgt id='54'> +5.0758409e+02 </wgt>
<wgt id='55'> +4.5545005e+02 </wgt>
<wgt id='56'> +4.7449438e+02 </wgt>
<wgt id='57'> +4.9296581e+02 </wgt>
<wgt id='58'> +5.1180445e+02 </wgt>
<wgt id='59'> +4.9565530e+02 </wgt>
<wgt id='60'> +4.8333193e+02 </wgt>
<wgt id='61'> +4.9719390e+02 </wgt>
<wgt id='62'> +4.9753546e+02 </wgt>
<wgt id='63'> +5.0525218e+02 </wgt>
<wgt id='64'> +5.0332500e+02 </wgt>
<wgt id='65'> +5.8963041e+02 </wgt>
<wgt id='66'> +4.9241168e+02 </wgt>
<wgt id='67'> +5.0925692e+02 </wgt>
<wgt id='68'> +5.3599033e+02 </wgt>
<wgt id='69'> +4.8753352e+02 </wgt>
<wgt id='70'> +4.9766546e+02 </wgt>
<wgt id='71'> +5.1444856e+02 </wgt>
<wgt id='72'> +4.9917625e+02 </wgt>
<wgt id='73'> +5.0032430e+02 </wgt>
<wgt id='74'> +5.1572037e+02 </wgt>
<wgt id='75'> +5.1412638e+02 </wgt>
<wgt id='76'> +4.9227140e+02 </wgt>
<wgt id='77'> +4.8530329e+02 </wgt>
<wgt id='78'> +5.0823769e+02 </wgt>
<wgt id='79'> +4.8338724e+02 </wgt>
<wgt id='80'> +5.0195764e+02 </wgt>
<wgt id='81'> +4.9750808e+02 </wgt>
<wgt id='82'> +5.1919075e+02 </wgt>
<wgt id='83'> +5.1196676e+02 </wgt>
<wgt id='84'> +5.4939745e+02 </wgt>
<wgt id='85'> +5.2928674e+02 </wgt>
<wgt id='86'> +4.9908710e+02 </wgt>
<wgt id='87'> +5.0369003e+02 </wgt>
<wgt id='88'> +5.1106895e+02 </wgt>
<wgt id='89'> +5.1477465e+02 </wgt>
<wgt id='90'> +5.0976369e+02 </wgt>
<wgt id='91'> +5.3641103e+02 </wgt>
<wgt id='92'> +4.7380332e+02 </wgt>
<wgt id='93'> +4.9449942e+02 </wgt>
<wgt id='94'> +5.0495041e+02 </wgt>
<wgt id='95'> +4.8759145e+02 </wgt>
<wgt id='96'> +5.3809254e+02 </wgt>
<wgt id='97'> +5.1417592e+02 </wgt>
<wgt id='98'> +4.8186834e+02 </wgt>
<wgt id='99'> +4.9211679e+02 </wgt>
<wgt id='100'> +5.0709784e+02 </wgt>
<wgt id='101'> +5.2296074e+02 </wgt>
<wgt id='102'> +4.8521803e+02 </wgt>
<wgt id='103'> +5.4352084e+02 </wgt>
<wgt id='104'> +5.0145695e+02 </wgt>
<wgt id='105'> +5.2721810e+02 </wgt>
<wgt id='106'> +4.7229449e+02 </wgt>
<wgt id='107'> +5.0484455e+02 </wgt>
<wgt id='108'> +4.5991283e+02 </wgt>
<wgt id='109'> +4.7930380e+02 </wgt>
<wgt id='110'> +5.0738750e+02 </wgt>
<wgt id='111'> +4.9433398e+02 </wgt>
<wgt id='112'> +4.8549829e+02 </wgt>
<wgt id='113'> +4.6807863e+02 </wgt>
<wgt id='114'> +5.0925520e+02 </wgt>
<wgt id='115'> +5.0967566e+02 </wgt>
<wgt id='116'> +4.9892359e+02 </wgt>
<wgt id='117'> +5.1250763e+02 </wgt>
<wgt id='118'> +5.1230445e+02 </wgt>
<wgt id='119'> +4.8828577e+02 </wgt>
<wgt id='120'> +5.0480617e+02 </wgt>
<wgt id='121'> +4.9379423e+02 </wgt>
<wgt id='122'> +4.9939643e+02 </wgt>
<wgt id='123'> +5.0889068e+02 </wgt>
<wgt id='124'> +5.3203725e+02 </wgt>
<wgt id='125'> +5.3397944e+02 </wgt>
<wgt id='126'> +5.2059206e+02 </wgt>
<wgt id='127'> +5.1718032e+02 </wgt>
<wgt id='128'> +4.7202710e+02 </wgt>
<wgt id='129'> +5.6746469e+02 </wgt>
<wgt id='130'> +5.0606264e+02 </wgt>
<wgt id='131'> +5.3937548e+02 </wgt>
<wgt id='132'> +4.9800010e+02 </wgt>
<wgt id='133'> +4.9791028e+02 </wgt>
<wgt id='134'> +4.7607671e+02 </wgt>
<wgt id='135'> +5.1731926e+02 </wgt>
<wgt id='136'> +4.8376629e+02 </wgt>
<wgt id='137'> +4.7439520e+02 </wgt>
<wgt id='138'> +4.5499372e+02 </wgt>
<wgt id='139'> +5.1247653e+02 </wgt>
<wgt id='140'> +5.3724461e+02 </wgt>
<wgt id='141'> +5.0263326e+02 </wgt>
<wgt id='142'> +5.1224350e+02 </wgt>
<wgt id='143'> +4.9981983e+02 </wgt>
<wgt id='144'> +5.0780007e+02 </wgt>
<wgt id='145'> +5.0577620e+02 </wgt>
</rwgt>
</event>
<event>
 4      1 +5.0481800e+02 1.75041300e+02 7.54677100e-03 1.17269000e-01
       21 -1    0    0  503  502 +0.0000000000e+00 +0.0000000000e+00 +3.2190714004e+01 3.2190714004e+01 0.0000000000e+00 0.0000e+00 1.0000e+00
       21 -1    0    0  501  503 -0.0000000000e+00 -0.0000000000e+00 -1.1595218014e+03 1.1595218014e+03 0.0000000000e+00 0.0000e+00 1.0000e+00
        6  1    1    2  501    0 -2.6578981086e+01 +2.0015491358e+00 -8.1585822037e+02 8.3442440291e+02 1.7300000000e+02 0.0000e+00 1.0000e+00
       -6  1    1    2    0  502 +2.6578981086e+01 -2.0015491358e+00 -3.1147286705e+02 3.5728811251e+02 1.7300000000e+02 0.0000e+00 1.0000e+00
<mgrwt>
<rscale>  2 0.17504128E+03</rscale>
<asrwt>0</asrwt>
<pdfrwt beam="1">  1       21 0.49524176E-02 0.17504128E+03</pdfrwt>
<pdfrwt beam="2">  1       21 0.17838797E+00 0.17504128E+03</pdfrwt>
<totfact> 0.51577945E+04</totfact>
</mgrwt>
<rwgt>
<wgt id='1'> +6.6548991e+02 </wgt>
<wgt id='2'> +1.0732757e+03 </wgt>
<wgt id='3'> +5.0481800e+02 </wgt>
<wgt id='4'> +6.6548992e+02 </wgt>
<wgt id='5'> +4.8601485e+02 </wgt>
<wgt id='6'> +6.2226498e+02 </wgt>
<wgt id='7'> +1.0195067e+03 </wgt>
<wgt id='8'> +4.6369146e+02 </wgt>
<wgt id='9'> +6.2226498e+02 </wgt>
<wgt id='10'> +4.4603973e+02 </wgt>
<wgt id='11'> +5.7157026e+02 </wgt>
<wgt id='12'> +9.5773217e+02 </wgt>
<wgt id='13'> +4.2584854e+02 </wgt>
<wgt id='14'> +5.7157026e+02 </wgt>
<wgt id='15'> +4.0971368e+02 </wgt>
<wgt id='16'> +5.3988461e+02 </wgt>
<wgt id='17'> +8.3386901e+02 </wgt>
<wgt id='18'> +4.2376176e+02 </wgt>
<wgt id='19'> +5.3988462e+02 </wgt>
<wgt id='20'> +4.0920904e+02 </wgt>
<wgt id='21'> +7.9209378e+02 </wgt>
<wgt id='22'> +3.8923871e+02 </wgt>
<wgt id='23'> +5.0481800e+02 </wgt>
<wgt id='24'> +3.7555127e+02 </wgt>
<wgt id='25'> +4.6369146e+02 </wgt>
<wgt id='26'> +7.4409880e+02 </wgt>
<wgt id='27'> +3.5747205e+02 </wgt>
<wgt id='28'> +4.6369146e+02 </wgt>
<wgt id='29'> +3.4496588e+02 </wgt>
<wgt id='30'> +4.5319789e+02 </wgt>
<wgt id='31'> +6.6646965e+02 </wgt>
<wgt id='32'> +3.6103624e+02 </wgt>
<wgt id='33'> +4.5319790e+02 </wgt>
<wgt id='34'> +3.4926610e+02 </wgt>
<wgt id='35'> +4.2376176e+02 </wgt>
<wgt id='36'> +6.3308080e+02 </wgt>
<wgt id='37'> +3.3162332e+02 </wgt>
<wgt id='38'> +4.2376176e+02 </wgt>
<wgt id='39'> +3.2053868e+02 </wgt>
<wgt id='40'> +3.8923871e+02 </wgt>
<wgt id='41'> +5.9472082e+02 </wgt>
<wgt id='42'> +3.0455878e+02 </wgt>
<wgt id='43'> +3.8923871e+02 </wgt>
<wgt id='44'> +2.9443360e+02 </wgt>
<wgt id='45'> +5.0481800e+02 </wgt>
<wgt id='46'> +5.1895057e+02 </wgt>
<wgt id='47'> +5.1690664e+02 </wgt>
<wgt id='48'> +5.0376071e+02 </wgt>
<wgt id='49'> +4.7297289e+02 </wgt>
<wgt id='50'> +5.8572465e+02 </wgt>
<wgt id='51'> +4.7886454e+02 </wgt>
<wgt id='52'> +4.8189471e+02 </wgt>
<wgt id='53'> +5.0103325e+02 </wgt>
<wgt id='54'> +5.3214140e+02 </wgt>
<wgt id='55'> +5.5159037e+02 </wgt>
<wgt id='56'> +4.7995124e+02 </wgt>
<wgt id='57'> +5.3363848e+02 </wgt>
<wgt id='58'> +4.6711052e+02 </wgt>
<wgt id='59'> +5.4791659e+02 </wgt>
<wgt id='60'> +5.1132350e+02 </wgt>
<wgt id='61'> +4.5153710e+02 </wgt>
<wgt id='62'> +4.7272679e+02 </wgt>
<wgt id='63'> +5.2735144e+02 </wgt>
<wgt id='64'> +5.0531674e+02 </wgt>
<wgt id='65'> +4.7571518e+02 </wgt>
<wgt id='66'> +5.0711306e+02 </wgt>
<wgt id='67'> +5.0702123e+02 </wgt>
<wgt id='68'> +5.9523957e+02 </wgt>
<wgt id='69'> +5.3210396e+02 </wgt>
<wgt id='70'> +5.3080251e+02 </wgt>
<wgt id='71'> +4.7877513e+02 </wgt>
<wgt id='72'> +4.7351553e+02 </wgt>
<wgt id='73'> +4.6476726e+02 </wgt>
<wgt id='74'> +5.6631960e+02 </wgt>
<wgt id='75'> +5.3743796e+02 </wgt>
<wgt id='76'> +5.1684946e+02 </wgt>
<wgt id='77'> +4.8494710e+02 </wgt>
<wgt id='78'> +4.4474928e+02 </wgt>
<wgt id='79'> +5.3274165e+02 </wgt>
<wgt id='80'> +4.5814303e+02 </wgt>
<wgt id='81'> +5.1604435e+02 </wgt>
<wgt id='82'> +4.9028972e+02 </wgt>
<wgt id='83'> +4.9646666e+02 </wgt>
<wgt id='84'> +4.9890831e+02 </wgt>
<wgt id='85'> +4.6768795e+02 </wgt>
<wgt id='86'> +5.2292063e+02 </wgt>
<wgt id='87'> +5.0171220e+02 </wgt>
<wgt id='88'> +4.9057530e+02 </wgt>
<wgt id='89'> +4.5178368e+02 </wgt>
<wgt id='90'> +4.8384110e+02 </wgt>
<wgt id='91'> +4.5611201e+02 </wgt>
<wgt id='92'> +4.7414463e+02 </wgt>
<wgt id='93'> +5.0915192e+02 </wgt>
<wgt id='94'> +4.6933955e+02 </wgt>
<wgt id='95'> +5.2870585e+02 </wgt>
<wgt id='96'> +5.2554614e+02 </wgt>
<wgt id='97'> +4.6638447e+02 </wgt>
<wgt id='98'> +5.3071762e+02 </wgt>
<wgt id='99'> +4.3854948e+02 </wgt>
<wgt id='100'> +4.0571861e+02 </wgt>
<wgt id='101'> +5.8148910e+02 </wgt>
<wgt id='102'> +5.5858376e+02 </wgt>
<wgt id='103'> +4.9528499e+02 </wgt>
<wgt id='104'> +5.3056031e+02 </wgt>
<wgt id='105'> +5.1820639e+02 </wgt>
<wgt id='106'> +4.8705161e+02 </wgt>
<wgt id='107'> +4.8540614e+02 </wgt>
<wgt id='108'> +4.6932239e+02 </wgt>
<wgt id='109'> +4.9803787e+02 </wgt>
<wgt id='110'> +4.7509275e+02 </wgt>
<wgt id='111'> +4.9238725e+02 </wgt>
<wgt id='112'> +5.1764983e+02 </wgt>
<wgt id='113'> +5.1731300e+02 </wgt>
<wgt id='114'> +5.1920076e+02 </wgt>
<wgt id='115'> +4.6201782e+02 </wgt>
<wgt id='116'> +5.4608214e+02 </wgt>
<wgt id='117'> +4.9239649e+02 </wgt>
<wgt id='118'> +5.2294229e+02 </wgt>
<wgt id='119'> +5.4219198e+02 </wgt>
<wgt id='120'> +5.0309253e+02 </wgt>
<wgt id='121'> +5.0230673e+02 </wgt>
<wgt id='122'> +4.9662721e+02 </wgt>
<wgt id='123'> +4.8681270e+02 </wgt>
<wgt id='124'> +5.6648434e+02 </wgt>
<wgt id='125'> +6.1418196e+02 </wgt>
<wgt id='126'> +4.9866080e+02 </wgt>
<wgt id='127'> +4.9074670e+02 </wgt>
<wgt id='128'> +4.7881326e+02 </wgt>
<wgt id='129'> +5.2380970e+02 </wgt>
<wgt id='130'> +4.8366125e+02 </wgt>
<wgt id='131'> +4.7636231e+02 </wgt>
<wgt id='132'> +5.5378086e+02 </wgt>
<wgt id='133'> +5.4477296e+02 </wgt>
<wgt id='134'> +5.2482315e+02 </wgt>
<wgt id='135'> +4.8863481e+02 </wgt>
<wgt id='136'> +5.8552272e+02 </wgt>
<wgt id='137'> +5.1604434e+02 </wgt>
<wgt id='138'> +5.0588421e+02 </wgt>
<wgt id='139'> +5.2088193e+02 </wgt>
<wgt id='140'> +4.9539606e+02 </wgt>
<wgt id='141'> +5.5582213e+02 </wgt>
<wgt id='142'> +3.8398630e+02 </wgt>
<wgt id='143'> +5.2032966e+02 </wgt>
<wgt id='144'> +4.6821227e+02 </wgt>
<wgt id='145'> +4.7130531e+02 </wgt>
</rwgt>
</event>
<event>
 4      1 +5.0481800e+02 2.13937700e+02 7.54677100e-03 1.13848500e-01
       21 -1    0    0  503  502 +0.0000000000e+00 +0.0000000000e+00 +1.0696443343e+02 1.0696443343e+02 0.0000000000e+00 0.0000e+00 -1.0000e+00
       21 -1    0    0  501  503 -0.0000000000e+00 -0.0000000000e+00 -4.8723667889e+02 4.8723667889e+02 0.0000000000e+00 0.0000e+00 -1.0000e+00
        6  1    1    2  501    0 +1.0376810505e+02 -7.1221675732e+01 -2.9382214595e+02 3.6345673769e+02 1.7300000000e+02 0.0000e+00 -1.0000e+00
       -6  1    1    2    0  502 -1.0376810505e+02 +7.1221675732e+01 -8.6450099503e+01 2.3074437463e+02 1.7300000000e+02 0.0000e+00 -1.0000e+00
<mgrwt>
<rscale>  2 0.21393772E+03</rscale>
<asrwt>0</asrwt>
<pdfrwt beam="1">  1       21 0.16456067E-01 0.21393772E+03</pdfrwt>
<pdfrwt beam="2">  1       21 0.74959488E-01 0.21393772E+03</pdfrwt>
<totfact> 0.52178078E+04</totfact>
</mgrwt>
<rwgt>
<wgt id='1'> +6.5063420e+02 </wgt>
<wgt id='2'> +5.5213569e+02 </wgt>
<wgt id='3'> +5.0481800e+02 </wgt>
<wgt id='4'> +6.5063420e+02 </wgt>
<wgt id='5'> +4.9335165e+02 </wgt>
<wgt id='6'> +6.1597012e+02 </wgt>
<wgt id='7'> +5.1624611e+02 </wgt>
<wgt id='8'> +4.7109991e+02 </wgt>
<wgt id='9'> +6.1597012e+02 </wgt>
<wgt id='10'> +4.6043719e+02 </wgt>
<wgt id='11'> +5.7482789e+02 </wgt>
<wgt id='12'> +4.8180111e+02 </wgt>
<wgt id='13'> +4.3972622e+02 </wgt>
<wgt id='14'> +5.7482790e+02 </wgt>
<wgt id='15'> +4.2979564e+02 </wgt>
<wgt id='16'> +5.3322693e+02 </wgt>
<wgt id='17'> +4.6266876e+02 </wgt>
<wgt id='18'> +4.2600879e+02 </wgt>
<wgt id='19'> +5.3322693e+02 </wgt>
<wgt id='20'> +4.1684185e+02 </wgt>
<wgt id='21'> +4.3259465e+02 </wgt>
<wgt id='22'> +3.9755457e+02 </wgt>
<wgt id='23'> +5.0481800e+02 </wgt>
<wgt id='24'> +3.8903182e+02 </wgt>
<wgt id='25'> +4.7109991e+02 </wgt>
<wgt id='26'> +4.0373105e+02 </wgt>
<wgt id='27'> +3.7107875e+02 </wgt>
<wgt id='28'> +4.7109991e+02 </wgt>
<wgt id='29'> +3.6314222e+02 </wgt>
<wgt id='30'> +4.4998268e+02 </wgt>
<wgt id='31'> +3.9382197e+02 </wgt>
<wgt id='32'> +3.6427130e+02 </wgt>
<wgt id='33'> +4.4998268e+02 </wgt>
<wgt id='34'> +3.5683761e+02 </wgt>
<wgt id='35'> +4.2600878e+02 </wgt>
<wgt id='36'> +3.6822300e+02 </wgt>
<wgt id='37'> +3.3994069e+02 </wgt>
<wgt id='38'> +4.2600879e+02 </wgt>
<wgt id='39'> +3.3303082e+02 </wgt>
<wgt id='40'> +3.9755456e+02 </wgt>
<wgt id='41'> +3.4365440e+02 </wgt>
<wgt id='42'> +3.1730177e+02 </wgt>
<wgt id='43'> +3.9755457e+02 </wgt>
<wgt id='44'> +3.1086802e+02 </wgt>
<wgt id='45'> +5.0481800e+02 </wgt>
<wgt id='46'> +5.1034537e+02 </wgt>
<wgt id='47'> +5.2176878e+02 </wgt>
<wgt id='48'> +5.0797040e+02 </wgt>
<wgt id='49'> +5.0067450e+02 </wgt>
<wgt id='50'> +5.9443176e+02 </wgt>
<wgt id='51'> +4.9415608e+02 </wgt>
<wgt id='52'> +5.0335193e+02 </wgt>
<wgt id='53'> +5.0447403e+02 </wgt>
<wgt id='54'> +5.0973740e+02 </wgt>
<wgt id='55'> +4.6398421e+02 </wgt>
<wgt id='56'> +4.6547548e+02 </wgt>
<wgt id='57'> +4.9856339e+02 </wgt>
<wgt id='58'> +5.0166219e+02 </wgt>
<wgt id='59'> +5.1014131e+02 </wgt>
<wgt id='60'> +4.9434378e+02 </wgt>
<wgt id='61'> +4.6641278e+02 </wgt>
<wgt id='62'> +4.9718019e+02 </wgt>
<wgt id='63'> +5.0585684e+02 </wgt>
<wgt id='64'> +4.9694554e+02 </wgt>
<wgt id='65'> +5.7803042e+02 </wgt>
<wgt id='66'> +4.9461531e+02 </wgt>
<wgt id='67'> +5.0866078e+02 </wgt>
<wgt id='68'> +5.4842176e+02 </wgt>
<wgt id='69'> +4.9844035e+02 </wgt>
<wgt id='70'> +4.9738602e+02 </wgt>
<wgt id='71'> +5.1244450e+02 </wgt>
<wgt id='72'> +4.8794746e+02 </wgt>
<wgt id='73'> +4.9408584e+02 </wgt>
<wgt id='74'> +5.2648490e+02 </wgt>
<wgt id='75'> +5.1616487e+02 </wgt>
<wgt id='76'> +4.9410242e+02 </wgt>
<wgt id='77'> +4.9110645e+02 </wgt>
<wgt id='78'> +4.9432569e+02 </wgt>
<wgt id='79'> +4.9168119e+02 </wgt>
<wgt id='80'> +4.9593685e+02 </wgt>
<wgt id='81'> +4.9546364e+02 </wgt>
<wgt id='82'> +5.0831443e+02 </wgt>
<wgt id='83'> +5.1331310e+02 </wgt>
<wgt id='84'> +5.4821552e+02 </wgt>
<wgt id='85'> +5.2290385e+02 </wgt>
<wgt id='86'> +5.0445007e+02 </wgt>
<wgt id='87'> +5.0664910e+02 </wgt>
<wgt id='88'> +5.1035168e+02 </wgt>
<wgt id='89'> +5.1449879e+02 </wgt>
<wgt id='90'> +5.1282963e+02 </wgt>
<wgt id='91'> +5.2742800e+02 </wgt>
<wgt id='92'> +4.6322415e+02 </wgt>
<wgt id='93'> +4.9944839e+02 </wgt>
<wgt id='94'> +4.9702418e+02 </wgt>
<wgt id='95'> +4.9079364e+02 </wgt>
<wgt id='96'> +5.4310774e+02 </wgt>
<wgt id='97'> +5.0618359e+02 </wgt>
<wgt id='98'> +4.8757043e+02 </wgt>
<wgt id='99'> +4.8511031e+02 </wgt>
<wgt id='100'> +4.8666681e+02 </wgt>
<wgt id='101'> +5.4302180e+02 </wgt>
<wgt id='102'> +5.0435931e+02 </wgt>
<wgt id='103'> +5.4577310e+02 </wgt>
<wgt id='104'> +5.0658004e+02 </wgt>
<wgt id='105'> +5.2250700e+02 </wgt>
<wgt id='106'> +4.6284192e+02 </wgt>
<wgt id='107'> +4.9003812e+02 </wgt>
<wgt id='108'> +4.4936771e+02 </wgt>
<wgt id='109'> +4.7473991e+02 </wgt>
<wgt id='110'> +5.0313870e+02 </wgt>
<wgt id='111'> +4.9132140e+02 </wgt>
<wgt id='112'> +4.7956908e+02 </wgt>
<wgt id='113'> +4.6599306e+02 </wgt>
<wgt id='114'> +4.9811161e+02 </wgt>
<wgt id='115'> +4.9179037e+02 </wgt>
<wgt id='116'> +5.1304155e+02 </wgt>
<wgt id='117'> +5.0522795e+02 </wgt>
<wgt id='118'> +5.2326453e+02 </wgt>
<wgt id='119'> +4.8877703e+02 </wgt>
<wgt id='120'> +4.9644969e+02 </wgt>
<wgt id='121'> +4.9277300e+02 </wgt>
<wgt id='122'> +4.9902719e+02 </wgt>
<wgt id='123'> +5.0971319e+02 </wgt>
<wgt id='124'> +5.4793008e+02 </wgt>
<wgt id='125'> +5.5072358e+02 </wgt>
<wgt id='126'> +5.2227526e+02 </wgt>
<wgt id='127'> +5.1889793e+02 </wgt>
<wgt id='128'> +4.6403769e+02 </wgt>
<wgt id='129'> +5.6797210e+02 </wgt>
<wgt id='130'> +5.0391315e+02 </wgt>
<wgt id='131'> +5.3311832e+02 </wgt>
<wgt id='132'> +5.1425824e+02 </wgt>
<wgt id='133'> +5.0977601e+02 </wgt>
<wgt id='134'> +4.8306333e+02 </wgt>
<wgt id='135'> +5.1478355e+02 </wgt>
<wgt id='136'> +5.0158085e+02 </wgt>
<wgt id='137'> +4.7992528e+02 </wgt>
<wgt id='138'> +4.6705505e+02 </wgt>
<wgt id='139'> +5.1717886e+02 </wgt>
<wgt id='140'> +5.2789479e+02 </wgt>
<wgt id='141'> +5.0811662e+02 </wgt>
<wgt id='142'> +4.9133367e+02 </wgt>
<wgt id='143'> +5.0775030e+02 </wgt>
<wgt id='144'> +4.9983264e+02 </wgt>
<wgt id='145'> +5.0430475e+02 </wgt>
</rwgt>
</event>
<event>
 4      1 +5.0481800e+02 1.92680800e+02 7.54677100e-03 1.15606500e-01
       21 -1    0    0  501  502 +0.0000000000e+00 +0.0000000000e+00 +3.6664382894e+02 3.6664382894e+02 0.0000000000e+00 0.0000e+00 1.0000e+00
       21 -1    0    0  502  503 -0.0000000000e+00 -0.0000000000e+00 -2.7003999600e+02 2.7003999600e+02 0.0000000000e+00 0.0000e+00 -1.0000e+00
        6  1    1    2  501    0 +6.6957544828e+01 -5.2092038230e+01 +2.9997795992e+02 3.5652863797e+02 1.7300000000e+02 0.0000e+00 1.0000e+00
       -6  1    1    2    0  503 -6.6957544828e+01 +5.2092038230e+01 -2.0337412699e+02 2.8015518697e+02 1.7300000000e+02 0.0000e+00 -1.0000e+00
<mgrwt>
<rscale>  2 0.19268081E+03</rscale>
<asrwt>0</asrwt>
<pdfrwt beam="1">  1       21 0.56406743E-01 0.19268081E+03</pdfrwt>
<pdfrwt beam="2">  1       21 0.41544614E-01 0.19268081E+03</pdfrwt>
<totfact> 0.16494030E+04</totfact>
</mgrwt>
<rwgt>
<wgt id='1'> +6.6582963e+02 </wgt>
<wgt id='2'> +6.4916913e+02 </wgt>
<wgt id='3'> +5.0481800e+02 </wgt>
<wgt id='4'> +6.6582964e+02 </wgt>
<wgt id='5'> +4.1959031e+02 </wgt>
<wgt id='6'> +6.1946761e+02 </wgt>
<wgt id='7'> +6.0306862e+02 </wgt>
<wgt id='8'> +4.6281248e+02 </wgt>
<wgt id='9'> +6.1946761e+02 </wgt>
<wgt id='10'> +3.8517456e+02 </wgt>
<wgt id='11'> +5.6792218e+02 </wgt>
<wgt id='12'> +5.5286720e+02 </wgt>
<wgt id='13'> +4.2511566e+02 </wgt>
<wgt id='14'> +5.6792219e+02 </wgt>
<wgt id='15'> +3.5438152e+02 </wgt>
<wgt id='16'> +5.4259945e+02 </wgt>
<wgt id='17'> +5.3072860e+02 </wgt>
<wgt id='18'> +4.2500900e+02 </wgt>
<wgt id='19'> +5.4259945e+02 </wgt>
<wgt id='20'> +3.5676558e+02 </wgt>
<wgt id='21'> +4.9303910e+02 </wgt>
<wgt id='22'> +3.8964433e+02 </wgt>
<wgt id='23'> +5.0481800e+02 </wgt>
<wgt id='24'> +3.2750285e+02 </wgt>
<wgt id='25'> +4.6281248e+02 </wgt>
<wgt id='26'> +4.5199690e+02 </wgt>
<wgt id='27'> +3.5790717e+02 </wgt>
<wgt id='28'> +4.6281248e+02 </wgt>
<wgt id='29'> +3.0132042e+02 </wgt>
<wgt id='30'> +4.5681741e+02 </wgt>
<wgt id='31'> +4.4748911e+02 </wgt>
<wgt id='32'> +3.6273397e+02 </wgt>
<wgt id='33'> +4.5681741e+02 </wgt>
<wgt id='34'> +3.0706424e+02 </wgt>
<wgt id='35'> +4.2500900e+02 </wgt>
<wgt id='36'> +4.1571083e+02 </wgt>
<wgt id='37'> +3.3255115e+02 </wgt>
<wgt id='38'> +4.2500900e+02 </wgt>
<wgt id='39'> +2.8187813e+02 </wgt>
<wgt id='40'> +3.8964433e+02 </wgt>
<wgt id='41'> +3.8110570e+02 </wgt>
<wgt id='42'> +3.0546432e+02 </wgt>
<wgt id='43'> +3.8964433e+02 </wgt>
<wgt id='44'> +2.5934320e+02 </wgt>
<wgt id='45'> +5.0481800e+02 </wgt>
<wgt id='46'> +5.1309880e+02 </wgt>
<wgt id='47'> +5.2802896e+02 </wgt>
<wgt id='48'> +5.1158350e+02 </wgt>
<wgt id='49'> +5.0332564e+02 </wgt>
<wgt id='50'> +6.1551768e+02 </wgt>
<wgt id='51'> +4.9494575e+02 </wgt>
<wgt id='52'> +5.0428193e+02 </wgt>
<wgt id='53'> +5.0431445e+02 </wgt>
<wgt id='54'> +5.0782668e+02 </wgt>
<wgt id='55'> +4.4771085e+02 </wgt>
<wgt id='56'> +4.5932600e+02 </wgt>
<wgt id='57'> +4.9074572e+02 </wgt>
<wgt id='58'> +5.0079468e+02 </wgt>
<wgt id='59'> +5.0620125e+02 </wgt>
<wgt id='60'> +4.9183820e+02 </wgt>
<wgt id='61'> +4.7451616e+02 </wgt>
<wgt id='62'> +4.9974677e+02 </wgt>
<wgt id='63'> +5.0512631e+02 </wgt>
<wgt id='64'> +4.9237129e+02 </wgt>
<wgt id='65'> +5.9748109e+02 </wgt>
<wgt id='66'> +4.9387744e+02 </wgt>
<wgt id='67'> +5.0930823e+02 </wgt>
<wgt id='68'> +5.5178402e+02 </wgt>
<wgt id='69'> +5.0199147e+02 </wgt>
<wgt id='70'> +4.9421524e+02 </wgt>
<wgt id='71'> +5.1427276e+02 </wgt>
<wgt id='72'> +4.7567938e+02 </wgt>
<wgt id='73'> +4.9413819e+02 </wgt>
<wgt id='74'> +5.2942775e+02 </wgt>
<wgt id='75'> +5.1851344e+02 </wgt>
<wgt id='76'> +4.8730695e+02 </wgt>
<wgt id='77'> +4.9098336e+02 </wgt>
<wgt id='78'> +4.9586458e+02 </wgt>
<wgt id='79'> +4.8851627e+02 </wgt>
<wgt id='80'> +4.9702870e+02 </wgt>
<wgt id='81'> +4.9166784e+02 </wgt>
<wgt id='82'> +5.1386003e+02 </wgt>
<wgt id='83'> +5.1998646e+02 </wgt>
<wgt id='84'> +5.6076963e+02 </wgt>
<wgt id='85'> +5.3251763e+02 </wgt>
<wgt id='86'> +5.0655047e+02 </wgt>
<wgt id='87'> +5.0800133e+02 </wgt>
<wgt id='88'> +5.1618640e+02 </wgt>
<wgt id='89'> +5.2172674e+02 </wgt>
<wgt id='90'> +5.1403733e+02 </wgt>
<wgt id='91'> +5.3578905e+02 </wgt>
<wgt id='92'> +4.4807813e+02 </wgt>
<wgt id='93'> +5.0058849e+02 </wgt>
<wgt id='94'> +4.9606162e+02 </wgt>
<wgt id='95'> +4.7984400e+02 </wgt>
<wgt id='96'> +5.5811911e+02 </wgt>
<wgt id='97'> +5.0794665e+02 </wgt>
<wgt id='98'> +4.8238959e+02 </wgt>
<wgt id='99'> +4.8645341e+02 </wgt>
<wgt id='100'> +4.8685840e+02 </wgt>
<wgt id='101'> +5.4843407e+02 </wgt>
<wgt id='102'> +5.0411459e+02 </wgt>
<wgt id='103'> +5.5731491e+02 </wgt>
<wgt id='104'> +5.0820199e+02 </wgt>
<wgt id='105'> +5.1958078e+02 </wgt>
<wgt id='106'> +4.4939892e+02 </wgt>
<wgt id='107'> +4.8443815e+02 </wgt>
<wgt id='108'> +4.3718516e+02 </wgt>
<wgt id='109'> +4.6493520e+02 </wgt>
<wgt id='110'> +5.0317905e+02 </wgt>
<wgt id='111'> +4.8619791e+02 </wgt>
<wgt id='112'> +4.7289322e+02 </wgt>
<wgt id='113'> +4.5530968e+02 </wgt>
<wgt id='114'> +4.8961251e+02 </wgt>
<wgt id='115'> +4.9077499e+02 </wgt>
<wgt id='116'> +5.1685307e+02 </wgt>
<wgt id='117'> +5.0650111e+02 </wgt>
<wgt id='118'> +5.2931425e+02 </wgt>
<wgt id='119'> +4.8025347e+02 </wgt>
<wgt id='120'> +4.9336081e+02 </wgt>
<wgt id='121'> +4.8601744e+02 </wgt>
<wgt id='122'> +4.9639078e+02 </wgt>
<wgt id='123'> +5.1461558e+02 </wgt>
<wgt id='124'> +5.5480113e+02 </wgt>
<wgt id='125'> +5.5444913e+02 </wgt>
<wgt id='126'> +5.3004027e+02 </wgt>
<wgt id='127'> +5.2481527e+02 </wgt>
<wgt id='128'> +4.5959289e+02 </wgt>
<wgt id='129'> +5.7868225e+02 </wgt>
<wgt id='130'> +5.1118382e+02 </wgt>
<wgt id='131'> +5.4146020e+02 </wgt>
<wgt id='132'> +5.0844697e+02 </wgt>
<wgt id='133'> +5.1035243e+02 </wgt>
<wgt id='134'> +4.7558566e+02 </wgt>
<wgt id='135'> +5.1839415e+02 </wgt>
<wgt id='136'> +4.9042847e+02 </wgt>
<wgt id='137'> +4.7769960e+02 </wgt>
<wgt id='138'> +4.6756720e+02 </wgt>
<wgt id='139'> +5.1981619e+02 </wgt>
<wgt id='140'> +5.3250283e+02 </wgt>
<wgt id='141'> +5.0669284e+02 </wgt>
<wgt id='142'> +4.9712759e+02 </wgt>
<wgt id='143'> +5.0514634e+02 </wgt>
<wgt id='144'> +4.9813867e+02 </wgt>
<wgt id='145'> +5.0635522e+02 </wgt>
</rwgt>
</event>
<event>
 4      1 +5.0481800e+02 2.03684600e+02 7.54677100e-03 1.14666700e-01
       21 -1    0    0  503  502 +0.0000000000e+00 +0.0000000000e+00 +3.1951487678e+02 3.1951487678e+02 0.0000000000e+00 0.0000e+00 -1.0000e+00
       21 -1    0    0  501  503 -0.0000000000e+00 -0.0000000000e+00 -2.7096082238e+02 2.7096082238e+02 0.0000000000e+00 0.0000e+00 -1.0000e+00
        6  1    1    2  501    0 +8.3739157890e+01 +6.7425293897e+01 -1.8878526805e+02 2.7771801212e+02 1.7300000000e+02 0.0000e+00 -1.0000e+00
       -6  1    1    2    0  502 -8.3739157890e+01 -6.7425293897e+01 +2.3733932246e+02 3.1275768704e+02 1.7300000000e+02 0.0000e+00 -1.0000e+00
<mgrwt>
<rscale>  2 0.20368460E+03</rscale>
<asrwt>0</asrwt>
<pdfrwt beam="1">  1       21 0.49156135E-01 0.20368460E+03</pdfrwt>
<pdfrwt beam="2">  1       21 0.41686280E-01 0.20368460E+03</pdfrwt>
<totfact> 0.21729621E+04</totfact>
</mgrwt>
<rwgt>
<wgt id='1'> +6.6128896e+02 </wgt>
<wgt id='2'> +5.9422764e+02 </wgt>
<wgt id='3'> +5.0481800e+02 </wgt>
<wgt id='4'> +6.6128896e+02 </wgt>
<wgt id='5'> +4.4054396e+02 </wgt>
<wgt id='6'> +6.1767592e+02 </wgt>
<wgt id='7'> +5.5096498e+02 </wgt>
<wgt id='8'> +4.6496974e+02 </wgt>
<wgt id='9'> +6.1767592e+02 </wgt>
<wgt id='10'> +4.0613034e+02 </wgt>
<wgt id='11'> +5.6891913e+02 </wgt>
<wgt id='12'> +5.0781699e+02 </wgt>
<wgt id='13'> +4.2898634e+02 </wgt>
<wgt id='14'> +5.6891913e+02 </wgt>
<wgt id='15'> +3.7508101e+02 </wgt>
<wgt id='16'> +5.4046233e+02 </wgt>
<wgt id='17'> +4.9267286e+02 </wgt>
<wgt id='18'> +4.2558920e+02 </wgt>
<wgt id='19'> +5.4046233e+02 </wgt>
<wgt id='20'> +3.7410372e+02 </wgt>
<wgt id='21'> +4.5680388e+02 </wgt>
<wgt id='22'> +3.9199494e+02 </wgt>
<wgt id='23'> +5.0481800e+02 </wgt>
<wgt id='24'> +3.4488016e+02 </wgt>
<wgt id='25'> +4.6496974e+02 </wgt>
<wgt id='26'> +4.2102997e+02 </wgt>
<wgt id='27'> +3.6165896e+02 </wgt>
<wgt id='28'> +4.6496974e+02 </wgt>
<wgt id='29'> +3.1851352e+02 </wgt>
<wgt id='30'> +4.5563933e+02 </wgt>
<wgt id='31'> +4.1756000e+02 </wgt>
<wgt id='32'> +3.6359374e+02 </wgt>
<wgt id='33'> +4.5563933e+02 </wgt>
<wgt id='34'> +3.2163288e+02 </wgt>
<wgt id='35'> +4.2558920e+02 </wgt>
<wgt id='36'> +3.8715960e+02 </wgt>
<wgt id='37'> +3.3489315e+02 </wgt>
<wgt id='38'> +4.2558920e+02 </wgt>
<wgt id='39'> +2.9650814e+02 </wgt>
<wgt id='40'> +3.9199494e+02 </wgt>
<wgt id='41'> +3.5683978e+02 </wgt>
<wgt id='42'> +3.0897620e+02 </wgt>
<wgt id='43'> +3.9199494e+02 </wgt>
<wgt id='44'> +2.7383961e+02 </wgt>
<wgt id='45'> +5.0481800e+02 </wgt>
<wgt id='46'> +5.1113184e+02 </wgt>
<wgt id='47'> +5.2722014e+02 </wgt>
<wgt id='48'> +5.1054201e+02 </wgt>
<wgt id='49'> +5.0366109e+02 </wgt>
<wgt id='50'> +6.0986020e+02 </wgt>
<wgt id='51'> +4.9509990e+02 </wgt>
<wgt id='52'> +5.0359630e+02 </wgt>
<wgt id='53'> +5.0614138e+02 </wgt>
<wgt id='54'> +5.0764606e+02 </wgt>
<wgt id='55'> +4.4736724e+02 </wgt>
<wgt id='56'> +4.6184940e+02 </wgt>
<wgt id='57'> +4.9013421e+02 </wgt>
<wgt id='58'> +5.0258392e+02 </wgt>
<wgt id='59'> +5.0330653e+02 </wgt>
<wgt id='60'> +4.8949418e+02 </wgt>
<wgt id='61'> +4.7999784e+02 </wgt>
<wgt id='62'> +4.9959720e+02 </wgt>
<wgt id='63'> +5.0516705e+02 </wgt>
<wgt id='64'> +4.9410397e+02 </wgt>
<wgt id='65'> +5.9833644e+02 </wgt>
<wgt id='66'> +4.9370619e+02 </wgt>
<wgt id='67'> +5.0939244e+02 </wgt>
<wgt id='68'> +5.4896922e+02 </wgt>
<wgt id='69'> +5.0000024e+02 </wgt>
<wgt id='70'> +4.9466682e+02 </wgt>
<wgt id='71'> +5.1435720e+02 </wgt>
<wgt id='72'> +4.7836040e+02 </wgt>
<wgt id='73'> +4.9518547e+02 </wgt>
<wgt id='74'> +5.2705831e+02 </wgt>
<wgt id='75'> +5.1812035e+02 </wgt>
<wgt id='76'> +4.8744870e+02 </wgt>
<wgt id='77'> +4.8972298e+02 </wgt>
<wgt id='78'> +4.9852353e+02 </wgt>
<wgt id='79'> +4.8720562e+02 </wgt>
<wgt id='80'> +4.9807643e+02 </wgt>
<wgt id='81'> +4.9245984e+02 </wgt>
<wgt id='82'> +5.1562728e+02 </wgt>
<wgt id='83'> +5.1936995e+02 </wgt>
<wgt id='84'> +5.6005619e+02 </wgt>
<wgt id='85'> +5.3293512e+02 </wgt>
<wgt id='86'> +5.0549516e+02 </wgt>
<wgt id='87'> +5.0722220e+02 </wgt>
<wgt id='88'> +5.1608793e+02 </wgt>
<wgt id='89'> +5.2079224e+02 </wgt>
<wgt id='90'> +5.1296747e+02 </wgt>
<wgt id='91'> +5.3677533e+02 </wgt>
<wgt id='92'> +4.5113055e+02 </wgt>
<wgt id='93'> +4.9955308e+02 </wgt>
<wgt id='94'> +4.9756599e+02 </wgt>
<wgt id='95'> +4.7998656e+02 </wgt>
<wgt id='96'> +5.5600467e+02 </wgt>
<wgt id='97'> +5.0930553e+02 </wgt>
<wgt id='98'> +4.8184105e+02 </wgt>
<wgt id='99'> +4.8755088e+02 </wgt>
<wgt id='100'> +4.9056580e+02 </wgt>
<wgt id='101'> +5.4374558e+02 </wgt>
<wgt id='102'> +5.0039973e+02 </wgt>
<wgt id='103'> +5.5553351e+02 </wgt>
<wgt id='104'> +5.0736624e+02 </wgt>
<wgt id='105'> +5.2050478e+02 </wgt>
<wgt id='106'> +4.5235897e+02 </wgt>
<wgt id='107'> +4.8776477e+02 </wgt>
<wgt id='108'> +4.4049452e+02 </wgt>
<wgt id='109'> +4.6667284e+02 </wgt>
<wgt id='110'> +5.0374853e+02 </wgt>
<wgt id='111'> +4.8722184e+02 </wgt>
<wgt id='112'> +4.7494880e+02 </wgt>
<wgt id='113'> +4.5679876e+02 </wgt>
<wgt id='114'> +4.9259697e+02 </wgt>
<wgt id='115'> +4.9494304e+02 </wgt>
<wgt id='116'> +5.1386377e+02 </wgt>
<wgt id='117'> +5.0804696e+02 </wgt>
<wgt id='118'> +5.2654949e+02 </wgt>
<wgt id='119'> +4.8092017e+02 </wgt>
<wgt id='120'> +4.9591589e+02 </wgt>
<wgt id='121'> +4.8657567e+02 </wgt>
<wgt id='122'> +4.9664721e+02 </wgt>
<wgt id='123'> +5.1421350e+02 </wgt>
<wgt id='124'> +5.5084205e+02 </wgt>
<wgt id='125'> +5.5072971e+02 </wgt>
<wgt id='126'> +5.2914696e+02 </wgt>
<wgt id='127'> +5.2385294e+02 </wgt>
<wgt id='128'> +4.6206707e+02 </wgt>
<wgt id='129'> +5.7724173e+02 </wgt>
<wgt id='130'> +5.1133979e+02 </wgt>
<wgt id='131'> +5.4176797e+02 </wgt>
<wgt id='132'> +5.0518600e+02 </wgt>
<wgt id='133'> +5.0796869e+02 </wgt>
<wgt id='134'> +4.7483013e+02 </wgt>
<wgt id='135'> +5.1841974e+02 </wgt>
<wgt id='136'> +4.8754440e+02 </wgt>
<wgt id='137'> +4.7719135e+02 </wgt>
<wgt id='138'> +4.6580549e+02 </wgt>
<wgt id='139'> +5.1848787e+02 </wgt>
<wgt id='140'> +5.3390212e+02 </wgt>
<wgt id='141'> +5.0597869e+02 </wgt>
<wgt id='142'> +5.0055343e+02 </wgt>
<wgt id='143'> +5.0351031e+02 </wgt>
<wgt id='144'> +4.9957990e+02 </wgt>
<wgt id='145'> +5.0637230e+02 </wgt>
</rwgt>
</event>
<event>
 4      1 +5.0481800e+02 1.88169200e+02 7.54677100e-03 1.16012300e-01
       21 -1    0    0  501  502 +0.0000000000e+00 +0.0000000000e+00 +4.8640805765e+02 4.8640805765e+02 0.0000000000e+00 0.0000e+00 1.0000e+00
       21 -1    0    0  502  503 -0.0000000000e+00 -0.0000000000e+00 -1.8980430938e+02 1.8980430938e+02 0.0000000000e+00 0.0000e+00 -1.0000e+00
        6  1    1    2  501    0 +7.3930076877e+01 -3.6044027946e+00 +4.1376971327e+02 4.5454705323e+02 1.7300000000e+02 0.0000e+00 1.0000e+00
       -6  1    1    2    0  503 -7.3930076877e+01 +3.6044027946e+00 -1.1716596499e+02 2.2166531379e+02 1.7300000000e+02 0.0000e+00 -1.0000e+00
<mgrwt>
<rscale>  2 0.18816920E+03</rscale>
<asrwt>0</asrwt>
<pdfrwt beam="1">  1       21 0.74832009E-01 0.18816920E+03</pdfrwt>
<pdfrwt beam="2">  1       21 0.29200663E-01 0.18816920E+03</pdfrwt>
<totfact> 0.17995765E+04</totfact>
</mgrwt>
<rwgt>
<wgt id='1'> +6.6552132e+02 </wgt>
<wgt id='2'> +6.5115189e+02 </wgt>
<wgt id='3'> +5.0481800e+02 </wgt>
<wgt id='4'> +6.6552132e+02 </wgt>
<wgt id='5'> +4.2142089e+02 </wgt>
<wgt id='6'> +6.2016227e+02 </wgt>
<wgt id='7'> +6.0605187e+02 </wgt>
<wgt id='8'> +4.6324856e+02 </wgt>
<wgt id='9'> +6.2016227e+02 </wgt>
<wgt id='10'> +3.8708787e+02 </wgt>
<wgt id='11'> +5.6909476e+02 </wgt>
<wgt id='12'> +5.5604137e+02 </wgt>
<wgt id='13'> +4.2576346e+02 </wgt>
<wgt id='14'> +5.6909476e+02 </wgt>
<wgt id='15'> +3.5629817e+02 </wgt>
<wgt id='16'> +5.4174070e+02 </wgt>
<wgt id='17'> +5.3142704e+02 </wgt>
<wgt id='18'> +4.2472264e+02 </wgt>
<wgt id='19'> +5.4174070e+02 </wgt>
<wgt id='20'> +3.5808433e+02 </wgt>
<wgt id='21'> +4.9461939e+02 </wgt>
<wgt id='22'> +3.8974868e+02 </wgt>
<wgt id='23'> +5.0481800e+02 </wgt>
<wgt id='24'> +3.2891131e+02 </wgt>
<wgt id='25'> +4.6324856e+02 </wgt>
<wgt id='26'> +4.5380414e+02 </wgt>
<wgt id='27'> +3.5821103e+02 </wgt>
<wgt id='28'> +4.6324856e+02 </wgt>
<wgt id='29'> +3.0274909e+02 </wgt>
<wgt id='30'> +4.5578711e+02 </wgt>
<wgt id='31'> +4.4775427e+02 </wgt>
<wgt id='32'> +3.6233380e+02 </wgt>
<wgt id='33'> +4.5578711e+02 </wgt>
<wgt id='34'> +3.0802383e+02 </wgt>
<wgt id='35'> +4.2472264e+02 </wgt>
<wgt id='36'> +4.1674196e+02 </wgt>
<wgt id='37'> +3.3249728e+02 </wgt>
<wgt id='38'> +4.2472264e+02 </wgt>
<wgt id='39'> +2.8292923e+02 </wgt>
<wgt id='40'> +3.8974868e+02 </wgt>
<wgt id='41'> +3.8235303e+02 </wgt>
<wgt id='42'> +3.0559230e+02 </wgt>
<wgt id='43'> +3.8974868e+02 </wgt>
<wgt id='44'> +2.6042450e+02 </wgt>
<wgt id='45'> +5.0481800e+02 </wgt>
<wgt id='46'> +5.1392278e+02 </wgt>
<wgt id='47'> +5.2623989e+02 </wgt>
<wgt id='48'> +5.1102968e+02 </wgt>
<wgt id='49'> +5.0123085e+02 </wgt>
<wgt id='50'> +6.1311448e+02 </wgt>
<wgt id='51'> +4.9400913e+02 </wgt>
<wgt id='52'> +5.0410086e+02 </wgt>
<wgt id='53'> +5.0292883e+02 </wgt>
<wgt id='54'> +5.0954059e+02 </wgt>
<wgt id='55'> +4.5583067e+02 </wgt>
<wgt id='56'> +4.5908686e+02 </wgt>
<wgt id='57'> +4.9542457e+02 </wgt>
<wgt id='58'> +4.9858751e+02 </wgt>
<wgt id='59'> +5.1114825e+02 </wgt>
<wgt id='60'> +4.9459717e+02 </wgt>
<wgt id='61'> +4.6185914e+02 </wgt>
<wgt id='62'> +4.9829008e+02 </wgt>
<wgt id='63'> +5.0557657e+02 </wgt>
<wgt id='64'> +4.9320530e+02 </wgt>
<wgt id='65'> +5.8863009e+02 </wgt>
<wgt id='66'> +4.9432411e+02 </wgt>
<wgt id='67'> +5.0886081e+02 </wgt>
<wgt id='68'> +5.5395766e+02 </wgt>
<wgt id='69'> +5.0300188e+02 </wgt>
<wgt id='70'> +4.9520071e+02 </wgt>
<wgt id='71'> +5.1302116e+02 </wgt>
<wgt id='72'> +4.7824782e+02 </wgt>
<wgt id='73'> +4.9230094e+02 </wgt>
<wgt id='74'> +5.3104096e+02 </wgt>
<wgt id='75'> +5.1826457e+02 </wgt>
<wgt id='76'> +4.9047445e+02 </wgt>
<wgt id='77'> +4.9183422e+02 </wgt>
<wgt id='78'> +4.9196114e+02 </wgt>
<wgt id='79'> +4.9124175e+02 </wgt>
<wgt id='80'> +4.9477332e+02 </wgt>
<wgt id='81'> +4.9256302e+02 </wgt>
<wgt id='82'> +5.0879673e+02 </wgt>
<wgt id='83'> +5.1769350e+02 </wgt>
<wgt id='84'> +5.5608068e+02 </wgt>
<wgt id='85'> +5.2731063e+02 </wgt>
<wgt id='86'> +5.0686034e+02 </wgt>
<wgt id='87'> +5.0808176e+02 </wgt>
<wgt id='88'> +5.1358532e+02 </wgt>
<wgt id='89'> +5.1854663e+02 </wgt>
<wgt id='90'> +5.1418288e+02 </wgt>
<wgt id='91'> +5.3042127e+02 </wgt>
<wgt id='92'> +4.5126425e+02 </wgt>
<wgt id='93'> +5.0100387e+02 </wgt>
<wgt id='94'> +4.9439887e+02 </wgt>
<wgt id='95'> +4.8533788e+02 </wgt>
<wgt id='96'> +5.5339999e+02 </wgt>
<wgt id='97'> +5.0541458e+02 </wgt>
<wgt id='98'> +4.8552232e+02 </wgt>
<wgt id='99'> +4.8368064e+02 </wgt>
<wgt id='100'> +4.8153871e+02 </wgt>
<wgt id='101'> +5.5142457e+02 </wgt>
<wgt id='102'> +5.0855047e+02 </wgt>
<wgt id='103'> +5.5358142e+02 </wgt>
<wgt id='104'> +5.0886671e+02 </wgt>
<wgt id='105'> +5.2025911e+02 </wgt>
<wgt id='106'> +4.5241296e+02 </wgt>
<wgt id='107'> +4.8335352e+02 </wgt>
<wgt id='108'> +4.3914167e+02 </wgt>
<wgt id='109'> +4.6781859e+02 </wgt>
<wgt id='110'> +5.0203341e+02 </wgt>
<wgt id='111'> +4.8768786e+02 </wgt>
<wgt id='112'> +4.7420021e+02 </wgt>
<wgt id='113'> +4.5878011e+02 </wgt>
<wgt id='114'> +4.9149730e+02 </wgt>
<wgt id='115'> +4.8788916e+02 </wgt>
<wgt id='116'> +5.1865806e+02 </wgt>
<wgt id='117'> +5.0466476e+02 </wgt>
<wgt id='118'> +5.2954230e+02 </wgt>
<wgt id='119'> +4.8388843e+02 </wgt>
<wgt id='120'> +4.9399698e+02 </wgt>
<wgt id='121'> +4.8866830e+02 </wgt>
<wgt id='122'> +4.9748216e+02 </wgt>
<wgt id='123'> +5.1292733e+02 </wgt>
<wgt id='124'> +5.5640339e+02 </wgt>
<wgt id='125'> +5.5771680e+02 </wgt>
<wgt id='126'> +5.2740557e+02 </wgt>
<wgt id='127'> +5.2286546e+02 </wgt>
<wgt id='128'> +4.5917898e+02 </wgt>
<wgt id='129'> +5.7544352e+02 </wgt>
<wgt id='130'> +5.0745181e+02 </wgt>
<wgt id='131'> +5.3687489e+02 </wgt>
<wgt id='132'> +5.1456862e+02 </wgt>
<wgt id='133'> +5.1291237e+02 </wgt>
<wgt id='134'> +4.7972647e+02 </wgt>
<wgt id='135'> +5.1643512e+02 </wgt>
<wgt id='136'> +4.9935791e+02 </wgt>
<wgt id='137'> +4.7942364e+02 </wgt>
<wgt id='138'> +4.6943817e+02 </wgt>
<wgt id='139'> +5.1992250e+02 </wgt>
<wgt id='140'> +5.2900888e+02 </wgt>
<wgt id='141'> +5.0873812e+02 </wgt>
<wgt id='142'> +4.8919339e+02 </wgt>
<wgt id='143'> +5.0774977e+02 </wgt>
<wgt id='144'> +4.9671823e+02 </wgt>
<wgt id='145'> +5.0496783e+02 </wgt>
</rwgt>
</event>
<event>
 4      1 +5.0481800e+02 2.18916600e+02 7.54677100e-03 1.13469300e-01
       21 -1    0    0  501  502 +0.0000000000e+00 +0.0000000000e+00 +1.0765953151e+02 1.0765953151e+02 0.0000000000e+00 0.0000e+00 -1.0000e+00
       21 -1    0    0  502  503 -0.0000000000e+00 -0.0000000000e+00 -4.5096506485e+02 4.5096506485e+02 0.0000000000e+00 0.0000e+00 1.0000e+00
        6  1    1    2  501    0 -9.0583700771e+01 +9.8944774143e+01 -2.0337422972e+02 2.9880688159e+02 1.7300000000e+02 0.0000e+00 -1.0000e+00
       -6  1    1    2    0  503 +9.0583700771e+01 -9.8944774143e+01 -1.3993130362e+02 2.5981771477e+02 1.7300000000e+02 0.0000e+00 1.0000e+00
<mgrwt>
<rscale>  2 0.21891659E+03</rscale>
<asrwt>0</asrwt>
<pdfrwt beam="1">  1       21 0.16563005E-01 0.21891659E+03</pdfrwt>
<pdfrwt beam="2">  1       21 0.69379240E-01 0.21891659E+03</pdfrwt>
<totfact> 0.61100463E+04</totfact>
</mgrwt>
<rwgt>
<wgt id='1'> +6.4832492e+02 </wgt>
<wgt id='2'> +5.4958504e+02 </wgt>
<wgt id='3'> +5.0481800e+02 </wgt>
<wgt id='4'> +6.4832491e+02 </wgt>
<wgt id='5'> +5.0367284e+02 </wgt>
<wgt id='6'> +6.1517242e+02 </wgt>
<wgt id='7'> +5.1503992e+02 </wgt>
<wgt id='8'> +4.7239019e+02 </wgt>
<wgt id='9'> +6.1517242e+02 </wgt>
<wgt id='10'> +4.7132190e+02 </wgt>
<wgt id='11'> +5.7565582e+02 </wgt>
<wgt id='12'> +4.8190116e+02 </wgt>
<wgt id='13'> +4.4202150e+02 </wgt>
<wgt id='14'> +5.7565582e+02 </wgt>
<wgt id='15'> +4.4102318e+02 </wgt>
<wgt id='16'> +5.3202334e+02 </wgt>
<wgt id='17'> +4.6107766e+02 </wgt>
<wgt id='18'> +4.2619248e+02 </wgt>
<wgt id='19'> +5.3202334e+02 </wgt>
<wgt id='20'> +4.2527706e+02 </wgt>
<wgt id='21'> +4.3209583e+02 </wgt>
<wgt id='22'> +3.9881531e+02 </wgt>
<wgt id='23'> +5.0481800e+02 </wgt>
<wgt id='24'> +3.9796148e+02 </wgt>
<wgt id='25'> +4.7239019e+02 </wgt>
<wgt id='26'> +4.0429387e+02 </wgt>
<wgt id='27'> +3.7317655e+02 </wgt>
<wgt id='28'> +4.7239019e+02 </wgt>
<wgt id='29'> +3.7237871e+02 </wgt>
<wgt id='30'> +4.4916058e+02 </wgt>
<wgt id='31'> +3.9270755e+02 </wgt>
<wgt id='32'> +3.6457552e+02 </wgt>
<wgt id='33'> +4.4916058e+02 </wgt>
<wgt id='34'> +3.6383373e+02 </wgt>
<wgt id='35'> +4.2619248e+02 </wgt>
<wgt id='36'> +3.6802324e+02 </wgt>
<wgt id='37'> +3.4115642e+02 </wgt>
<wgt id='38'> +4.2619248e+02 </wgt>
<wgt id='39'> +3.4046466e+02 </wgt>
<wgt id='40'> +3.9881531e+02 </wgt>
<wgt id='41'> +3.4434385e+02 </wgt>
<wgt id='42'> +3.1922440e+02 </wgt>
<wgt id='43'> +3.9881531e+02 </wgt>
<wgt id='44'> +3.1857805e+02 </wgt>
<wgt id='45'> +5.0481800e+02 </wgt>
<wgt id='46'> +5.0905502e+02 </wgt>
<wgt id='47'> +5.2167231e+02 </wgt>
<wgt id='48'> +5.0750542e+02 </wgt>
<wgt id='49'> +5.0144398e+02 </wgt>
<wgt id='50'> +5.9183780e+02 </wgt>
<wgt id='51'> +4.9451416e+02 </wgt>
<wgt id='52'> +5.0316407e+02 </wgt>
<wgt id='53'> +5.0569881e+02 </wgt>
<wgt id='54'> +5.0911308e+02 </wgt>
<wgt id='55'> +4.6173777e+02 </wgt>
<wgt id='56'> +4.6682947e+02 </wgt>
<wgt id='57'> +4.9710875e+02 </wgt>
<wgt id='58'> +5.0334026e+02 </wgt>
<wgt id='59'> +5.0742738e+02 </wgt>
<wgt id='60'> +4.9251706e+02 </wgt>
<wgt id='61'> +4.7268765e+02 </wgt>
<wgt id='62'> +4.9750980e+02 </wgt>
<wgt id='63'> +5.0567279e+02 </wgt>
<wgt id='64'> +4.9758918e+02 </wgt>
<wgt id='65'> +5.8065054e+02 </wgt>
<wgt id='66'> +4.9433915e+02 </wgt>
<wgt id='67'> +5.0881327e+02 </wgt>
<wgt id='68'> +5.4623801e+02 </wgt>
<wgt id='69'> +4.9689244e+02 </wgt>
<wgt id='70'> +4.9728528e+02 </wgt>
<wgt id='71'> +5.1292399e+02 </wgt>
<wgt id='72'> +4.8905062e+02 </wgt>
<wgt id='73'> +4.9523752e+02 </wgt>
<wgt id='74'> +5.2468611e+02 </wgt>
<wgt id='75'> +5.1587982e+02 </wgt>
<wgt id='76'> +4.9342660e+02 </wgt>
<wgt id='77'> +4.9030112e+02 </wgt>
<wgt id='78'> +4.9679946e+02 </wgt>
<wgt id='79'> +4.9023202e+02 </wgt>
<wgt id='80'> +4.9716537e+02 </wgt>
<wgt id='81'> +4.9562632e+02 </wgt>
<wgt id='82'> +5.1051048e+02 </wgt>
<wgt id='83'> +5.1347306e+02 </wgt>
<wgt id='84'> +5.4895475e+02 </wgt>
<wgt id='85'> +5.2444269e+02 </wgt>
<wgt id='86'> +5.0369539e+02 </wgt>
<wgt id='87'> +5.0623838e+02 </wgt>
<wgt id='88'> +5.1087670e+02 </wgt>
<wgt id='89'> +5.1499339e+02 </wgt>
<wgt id='90'> +5.1241438e+02 </wgt>
<wgt id='91'> +5.2939328e+02 </wgt>
<wgt id='92'> +4.6429159e+02 </wgt>
<wgt id='93'> +4.9875515e+02 </wgt>
<wgt id='94'> +4.9837644e+02 </wgt>
<wgt id='95'> +4.8954574e+02 </wgt>
<wgt id='96'> +5.4299901e+02 </wgt>
<wgt id='97'> +5.0764317e+02 </wgt>
<wgt id='98'> +4.8643487e+02 </wgt>
<wgt id='99'> +4.8655957e+02 </wgt>
<wgt id='100'> +4.9026910e+02 </wgt>
<wgt id='101'> +5.3970103e+02 </wgt>
<wgt id='102'> +5.0114641e+02 </wgt>
<wgt id='103'> +5.4585870e+02 </wgt>
<wgt id='104'> +5.0578684e+02 </wgt>
<wgt id='105'> +5.2291648e+02 </wgt>
<wgt id='106'> +4.6374835e+02 </wgt>
<wgt id='107'> +4.9214485e+02 </wgt>
<wgt id='108'> +4.5065166e+02 </wgt>
<wgt id='109'> +4.7495097e+02 </wgt>
<wgt id='110'> +5.0387369e+02 </wgt>
<wgt id='111'> +4.9154358e+02 </wgt>
<wgt id='112'> +4.8015662e+02 </wgt>
<wgt id='113'> +4.6585289e+02 </wgt>
<wgt id='114'> +4.9918135e+02 </wgt>
<wgt id='115'> +4.9459531e+02 </wgt>
<wgt id='116'> +5.1084705e+02 </wgt>
<wgt id='117'> +5.0644347e+02 </wgt>
<wgt id='118'> +5.2171134e+02 </wgt>
<wgt id='119'> +4.8815263e+02 </wgt>
<wgt id='120'> +4.9732036e+02 </wgt>
<wgt id='121'> +4.9247368e+02 </wgt>
<wgt id='122'> +4.9894076e+02 </wgt>
<wgt id='123'> +5.0987153e+02 </wgt>
<wgt id='124'> +5.4537407e+02 </wgt>
<wgt id='125'> +5.4774301e+02 </wgt>
<wgt id='126'> +5.2241005e+02 </wgt>
<wgt id='127'> +5.1892004e+02 </wgt>
<wgt id='128'> +4.6530843e+02 </wgt>
<wgt id='129'> +5.6810740e+02 </wgt>
<wgt id='130'> +5.0481584e+02 </wgt>
<wgt id='131'> +5.3453293e+02 </wgt>
<wgt id='132'> +5.1114072e+02 </wgt>
<wgt id='133'> +5.0777716e+02 </wgt>
<wgt id='134'> +4.8161894e+02 </wgt>
<wgt id='135'> +5.1535567e+02 </wgt>
<wgt id='136'> +4.9780075e+02 </wgt>
<wgt id='137'> +4.7906595e+02 </wgt>
<wgt id='138'> +4.6538451e+02 </wgt>
<wgt id='139'> +5.1645215e+02 </wgt>
<wgt id='140'> +5.2952111e+02 </wgt>
<wgt id='141'> +5.0704160e+02 </wgt>
<wgt id='142'> +4.9541180e+02 </wgt>
<wgt id='143'> +5.0632667e+02 </wgt>
<wgt id='144'> +5.0113287e+02 </wgt>
<wgt id='145'> +5.0480072e+02 </wgt>
</rwgt>
</event>
<event>
 4      1 +5.0481800e+02 1.76063900e+02 7.54677100e-03 1.17166800e-01
       21 -1    0    0  501  502 +0.0000000000e+00 +0.0000000000e+00 +8.4360840029e+01 8.4360840029e+01 0.0000000000e+00 0.0000e+00 1.0000e+00
       21 -1    0    0  502  503 -0.0000000000e+00 -0.0000000000e+00 -3.8015039257e+02 3.8015039257e+02 0.0000000000e+00 0.0000e+00 1.0000e+00
        6  1    1    2  501    0 +1.4314274819e+01 -2.9404019122e+01 -1.0544494492e+02 2.0522458725e+02 1.7300000000e+02 0.0000e+00 -1.0000e+00
       -6  1    1    2    0  503 -1.4314274819e+01 +2.9404019122e+01 -1.9034460762e+02 2.5928664535e+02 1.7300000000e+02 0.0000e+00 -1.0000e+00
<mgrwt>
<rscale>  2 0.17606389E+03</rscale>
<asrwt>0</asrwt>
<pdfrwt beam="1">  1       21 0.12978591E-01 0.17606389E+03</pdfrwt>
<pdfrwt beam="2">  1       21 0.58484676E-01 0.17606389E+03</pdfrwt>
<totfact> 0.14033758E+05</totfact>
</mgrwt>
<rwgt>
<wgt id='1'> +6.4181904e+02 </wgt>
<wgt id='2'> +7.7543236e+02 </wgt>
<wgt id='3'> +5.0481800e+02 </wgt>
<wgt id='4'> +6.4181903e+02 </wgt>
<wgt id='5'> +5.0194573e+02 </wgt>
<wgt id='6'> +6.2209631e+02 </wgt>
<wgt id='7'> +7.5787880e+02 </wgt>
<wgt id='8'> +4.7930022e+02 </wgt>
<wgt id='9'> +6.2209630e+02 </wgt>
<wgt id='10'> +4.7645366e+02 </wgt>
<wgt id='11'> +5.9065029e+02 </wgt>
<wgt id='12'> +7.3079858e+02 </wgt>
<wgt id='13'> +4.5387174e+02 </wgt>
<wgt id='14'> +5.9065028e+02 </wgt>
<wgt id='15'> +4.5116325e+02 </wgt>
<wgt id='16'> +5.2082258e+02 </wgt>
<wgt id='17'> +6.1757741e+02 </wgt>
<wgt id='18'> +4.2384464e+02 </wgt>
<wgt id='19'> +5.2082257e+02 </wgt>
<wgt id='20'> +4.2166763e+02 </wgt>
<wgt id='21'> +6.0359723e+02 </wgt>
<wgt id='22'> +4.0241995e+02 </wgt>
<wgt id='23'> +5.0481800e+02 </wgt>
<wgt id='24'> +4.0025261e+02 </wgt>
<wgt id='25'> +4.7930022e+02 </wgt>
<wgt id='26'> +5.8202973e+02 </wgt>
<wgt id='27'> +3.8107022e+02 </wgt>
<wgt id='28'> +4.7930022e+02 </wgt>
<wgt id='29'> +3.7900699e+02 </wgt>
<wgt id='30'> +4.3728207e+02 </wgt>
<wgt id='31'> +5.0551964e+02 </wgt>
<wgt id='32'> +3.6114577e+02 </wgt>
<wgt id='33'> +4.3728207e+02 </wgt>
<wgt id='34'> +3.5940311e+02 </wgt>
<wgt id='35'> +4.2384465e+02 </wgt>
<wgt id='36'> +4.9407612e+02 </wgt>
<wgt id='37'> +3.4289041e+02 </wgt>
<wgt id='38'> +4.2384464e+02 </wgt>
<wgt id='39'> +3.4115028e+02 </wgt>
<wgt id='40'> +4.0241995e+02 </wgt>
<wgt id='41'> +4.7642199e+02 </wgt>
<wgt id='42'> +3.2469892e+02 </wgt>
<wgt id='43'> +4.0241995e+02 </wgt>
<wgt id='44'> +3.2304185e+02 </wgt>
<wgt id='45'> +5.0481800e+02 </wgt>
<wgt id='46'> +5.0435008e+02 </wgt>
<wgt id='47'> +5.1907009e+02 </wgt>
<wgt id='48'> +5.0478303e+02 </wgt>
<wgt id='49'> +5.0328311e+02 </wgt>
<wgt id='50'> +5.7846224e+02 </wgt>
<wgt id='51'> +4.9525018e+02 </wgt>
<wgt id='52'> +5.0294585e+02 </wgt>
<wgt id='53'> +5.0892165e+02 </wgt>
<wgt id='54'> +5.0786055e+02 </wgt>
<wgt id='55'> +4.5943132e+02 </wgt>
<wgt id='56'> +4.7216161e+02 </wgt>
<wgt id='57'> +4.9522250e+02 </wgt>
<wgt id='58'> +5.0945837e+02 </wgt>
<wgt id='59'> +5.0115530e+02 </wgt>
<wgt id='60'> +4.8865797e+02 </wgt>
<wgt id='61'> +4.8805122e+02 </wgt>
<wgt id='62'> +4.9767577e+02 </wgt>
<wgt id='63'> +5.0532995e+02 </wgt>
<wgt id='64'> +5.0109505e+02 </wgt>
<wgt id='65'> +5.8249440e+02 </wgt>
<wgt id='66'> +4.9309305e+02 </wgt>
<wgt id='67'> +5.0901077e+02 </wgt>
<wgt id='68'> +5.3923804e+02 </wgt>
<wgt id='69'> +4.8991265e+02 </wgt>
<wgt id='70'> +4.9769098e+02 </wgt>
<wgt id='71'> +5.1397828e+02 </wgt>
<wgt id='72'> +4.9704025e+02 </wgt>
<wgt id='73'> +4.9913624e+02 </wgt>
<wgt id='74'> +5.1866132e+02 </wgt>
<wgt id='75'> +5.1401460e+02 </wgt>
<wgt id='76'> +4.9326349e+02 </wgt>
<wgt id='77'> +4.8797703e+02 </wgt>
<wgt id='78'> +5.0369701e+02 </wgt>
<wgt id='79'> +4.8658571e+02 </wgt>
<wgt id='80'> +5.0046328e+02 </wgt>
<wgt id='81'> +4.9705937e+02 </wgt>
<wgt id='82'> +5.1544864e+02 </wgt>
<wgt id='83'> +5.1145029e+02 </wgt>
<wgt id='84'> +5.4734022e+02 </wgt>
<wgt id='85'> +5.2673722e+02 </wgt>
<wgt id='86'> +5.0040591e+02 </wgt>
<wgt id='87'> +5.0481533e+02 </wgt>
<wgt id='88'> +5.0995244e+02 </wgt>
<wgt id='89'> +5.1532795e+02 </wgt>
<wgt id='90'> +5.1145365e+02 </wgt>
<wgt id='91'> +5.3317645e+02 </wgt>
<wgt id='92'> +4.7203795e+02 </wgt>
<wgt id='93'> +4.9626270e+02 </wgt>
<wgt id='94'> +5.0291531e+02 </wgt>
<wgt id='95'> +4.8913052e+02 </wgt>
<wgt id='96'> +5.3830447e+02 </wgt>
<wgt id='97'> +5.1159794e+02 </wgt>
<wgt id='98'> +4.8380257e+02 </wgt>
<wgt id='99'> +4.9084548e+02 </wgt>
<wgt id='100'> +5.0166944e+02 </wgt>
<wgt id='101'> +5.2896560e+02 </wgt>
<wgt id='102'> +4.9127042e+02 </wgt>
<wgt id='103'> +5.4390672e+02 </wgt>
<wgt id='104'> +5.0220956e+02 </wgt>
<wgt id='105'> +5.2574928e+02 </wgt>
<wgt id='106'> +4.7016557e+02 </wgt>
<wgt id='107'> +5.0039221e+02 </wgt>
<wgt id='108'> +4.5719626e+02 </wgt>
<wgt id='109'> +4.7839790e+02 </wgt>
<wgt id='110'> +5.0677901e+02 </wgt>
<wgt id='111'> +4.9348004e+02 </wgt>
<wgt id='112'> +4.8339023e+02 </wgt>
<wgt id='113'> +4.6796510e+02 </wgt>
<wgt id='114'> +5.0499977e+02 </wgt>
<wgt id='115'> +5.0204676e+02 </wgt>
<wgt id='116'> +5.0287255e+02 </wgt>
<wgt id='117'> +5.0933457e+02 </wgt>
<wgt id='118'> +5.1551111e+02 </wgt>
<wgt id='119'> +4.8874017e+02 </wgt>
<wgt id='120'> +5.0011721e+02 </wgt>
<wgt id='121'> +4.9418857e+02 </wgt>
<wgt id='122'> +4.9942284e+02 </wgt>
<wgt id='123'> +5.0846218e+02 </wgt>
<wgt id='124'> +5.3640817e+02 </wgt>
<wgt id='125'> +5.3837239e+02 </wgt>
<wgt id='126'> +5.2050364e+02 </wgt>
<wgt id='127'> +5.1764235e+02 </wgt>
<wgt id='128'> +4.6896321e+02 </wgt>
<wgt id='129'> +5.6687566e+02 </wgt>
<wgt id='130'> +5.0441975e+02 </wgt>
<wgt id='131'> +5.3711623e+02 </wgt>
<wgt id='132'> +5.0443132e+02 </wgt>
<wgt id='133'> +5.0161605e+02 </wgt>
<wgt id='134'> +4.7916234e+02 </wgt>
<wgt id='135'> +5.1658403e+02 </wgt>
<wgt id='136'> +4.9030570e+02 </wgt>
<wgt id='137'> +4.7588696e+02 </wgt>
<wgt id='138'> +4.5817817e+02 </wgt>
<wgt id='139'> +5.1415464e+02 </wgt>
<wgt id='140'> +5.3362496e+02 </wgt>
<wgt id='141'> +5.0370085e+02 </wgt>
<wgt id='142'> +5.0633741e+02 </wgt>
<wgt id='143'> +5.0330053e+02 </wgt>
<wgt id='144'> +5.0614314e+02 </wgt>
<wgt id='145'> +5.0547307e+02 </wgt>
</rwgt>
</event>
<event>
 4      1 +5.0481800e+02 1.76576200e+02 7.54677100e-03 1.17115800e-01
       21 -1    0    0  503  502 +0.0000000000e+00 +0.0000000000e+00 +1.0803742896e+02 1.0803742896e+02 0.0000000000e+00 0.0000e+00 1.0000e+00
       21 -1    0    0  501  503 -0.0000000000e+00 -0.0000000000e+00 -3.1695354145e+02 3.1695354145e+02 0.0000000000e+00 0.0000e+00 1.0000e+00
        6  1    1    2  501    0 -1.9396794313e+01 -2.9561949476e+01 -1.6801865625e+02 2.4374046307e+02 1.7300000000e+02 0.0000e+00 1.0000e+00
       -6  1    1    2    0  502 +1.9396794313e+01 +2.9561949476e+01 -4.0897456243e+01 1.8125050735e+02 1.7300000000e+02 0.0000e+00 1.0000e+00
<mgrwt>
<rscale>  2 0.17657617E+03</rscale>
<asrwt>0</asrwt>
<pdfrwt beam="1">  1       21 0.16621143E-01 0.17657617E+03</pdfrwt>
<pdfrwt beam="2">  1       21 0.48762082E-01 0.17657617E+03</pdfrwt>
<totfact> 0.13126366E+05</totfact>
</mgrwt>
<rwgt>
<wgt id='1'> +6.4219376e+02 </wgt>
<wgt id='2'> +6.5274177e+02 </wgt>
<wgt id='3'> +5.0481800e+02 </wgt>
<wgt id='4'> +6.4219375e+02 </wgt>
<wgt id='5'> +4.9692634e+02 </wgt>
<wgt id='6'> +6.2201118e+02 </wgt>
<wgt id='7'> +6.3290271e+02 </wgt>
<wgt id='8'> +4.7904750e+02 </wgt>
<wgt id='9'> +6.2201118e+02 </wgt>
<wgt id='10'> +4.7126361e+02 </wgt>
<wgt id='11'> +5.9025808e+02 </wgt>
<wgt id='12'> +6.0104830e+02 </wgt>
<wgt id='13'> +4.5346199e+02 </wgt>
<wgt id='14'> +5.9025808e+02 </wgt>
<wgt id='15'> +4.4606238e+02 </wgt>
<wgt id='16'> +5.2119798e+02 </wgt>
<wgt id='17'> +5.2868804e+02 </wgt>
<wgt id='18'> +4.2388560e+02 </wgt>
<wgt id='19'> +5.2119797e+02 </wgt>
<wgt id='20'> +4.1787647e+02 </wgt>
<wgt id='21'> +5.1261940e+02 </wgt>
<wgt id='22'> +4.0224663e+02 </wgt>
<wgt id='23'> +5.0481800e+02 </wgt>
<wgt id='24'> +3.9629611e+02 </wgt>
<wgt id='25'> +4.7904750e+02 </wgt>
<wgt id='26'> +4.8681893e+02 </wgt>
<wgt id='27'> +3.8076298e+02 </wgt>
<wgt id='28'> +4.7904750e+02 </wgt>
<wgt id='29'> +3.7510383e+02 </wgt>
<wgt id='30'> +4.3763954e+02 </wgt>
<wgt id='31'> +4.4322559e+02 </wgt>
<wgt id='32'> +3.6120004e+02 </wgt>
<wgt id='33'> +4.3763954e+02 </wgt>
<wgt id='34'> +3.5638489e+02 </wgt>
<wgt id='35'> +4.2388560e+02 </wgt>
<wgt id='36'> +4.2975445e+02 </wgt>
<wgt id='37'> +3.4276111e+02 </wgt>
<wgt id='38'> +4.2388560e+02 </wgt>
<wgt id='39'> +3.3798013e+02 </wgt>
<wgt id='40'> +4.0224663e+02 </wgt>
<wgt id='41'> +4.0812462e+02 </wgt>
<wgt id='42'> +3.2445453e+02 </wgt>
<wgt id='43'> +4.0224663e+02 </wgt>
<wgt id='44'> +3.1990635e+02 </wgt>
<wgt id='45'> +5.0481800e+02 </wgt>
<wgt id='46'> +5.0232275e+02 </wgt>
<wgt id='47'> +5.1974883e+02 </wgt>
<wgt id='48'> +5.0416737e+02 </wgt>
<wgt id='49'> +5.0388341e+02 </wgt>
<wgt id='50'> +5.7769311e+02 </wgt>
<wgt id='51'> +4.9524924e+02 </wgt>
<wgt id='52'> +5.0193179e+02 </wgt>
<wgt id='53'> +5.1177378e+02 </wgt>
<wgt id='54'> +5.0761010e+02 </wgt>
<wgt id='55'> +4.5514615e+02 </wgt>
<wgt id='56'> +4.7346670e+02 </wgt>
<wgt id='57'> +4.9296446e+02 </wgt>
<wgt id='58'> +5.1111955e+02 </wgt>
<wgt id='59'> +4.9647240e+02 </wgt>
<wgt id='60'> +4.8396512e+02 </wgt>
<wgt id='61'> +4.9549947e+02 </wgt>
<wgt id='62'> +4.9764074e+02 </wgt>
<wgt id='63'> +5.0522141e+02 </wgt>
<wgt id='64'> +5.0261760e+02 </wgt>
<wgt id='65'> +5.8995167e+02 </wgt>
<wgt id='66'> +4.9246937e+02 </wgt>
<wgt id='67'> +5.0924746e+02 </wgt>
<wgt id='68'> +5.3699975e+02 </wgt>
<wgt id='69'> +4.8833888e+02 </wgt>
<wgt id='70'> +4.9743710e+02 </wgt>
<wgt id='71'> +5.1445935e+02 </wgt>
<wgt id='72'> +4.9786217e+02 </wgt>
<wgt id='73'> +4.9993026e+02 </wgt>
<wgt id='74'> +5.1657564e+02 </wgt>
<wgt id='75'> +5.1434536e+02 </wgt>
<wgt id='76'> +4.9204967e+02 </wgt>
<wgt id='77'> +4.8568842e+02 </wgt>
<wgt id='78'> +5.0736956e+02 </wgt>
<wgt id='79'> +4.8373506e+02 </wgt>
<wgt id='80'> +5.0161725e+02 </wgt>
<wgt id='81'> +4.9714405e+02 </wgt>
<wgt id='82'> +5.1873828e+02 </wgt>
<wgt id='83'> +5.1237531e+02 </wgt>
<wgt id='84'> +5.4999392e+02 </wgt>
<wgt id='85'> +5.2938019e+02 </wgt>
<wgt id='86'> +4.9951090e+02 </wgt>
<wgt id='87'> +5.0396903e+02 </wgt>
<wgt id='88'> +5.1128887e+02 </wgt>
<wgt id='89'> +5.1521124e+02 </wgt>
<wgt id='90'> +5.1011148e+02 </wgt>
<wgt id='91'> +5.3629229e+02 </wgt>
<wgt id='92'> +4.7229530e+02 </wgt>
<wgt id='93'> +4.9486514e+02 </wgt>
<wgt id='94'> +5.0439202e+02 </wgt>
<wgt id='95'> +4.8725976e+02 </wgt>
<wgt id='96'> +5.3917539e+02 </wgt>
<wgt id='97'> +5.1375804e+02 </wgt>
<wgt id='98'> +4.8194899e+02 </wgt>
<wgt id='99'> +4.9173296e+02 </wgt>
<wgt id='100'> +5.0576242e+02 </wgt>
<wgt id='101'> +5.2459090e+02 </wgt>
<wgt id='102'> +4.8642800e+02 </wgt>
<wgt id='103'> +5.4435767e+02 </wgt>
<wgt id='104'> +5.0182446e+02 </wgt>
<wgt id='105'> +5.2681379e+02 </wgt>
<wgt id='106'> +4.7090267e+02 </wgt>
<wgt id='107'> +5.0353296e+02 </wgt>
<wgt id='108'> +4.5845374e+02 </wgt>
<wgt id='109'> +4.7844775e+02 </wgt>
<wgt id='110'> +5.0715136e+02 </wgt>
<wgt id='111'> +4.9386578e+02 </wgt>
<wgt id='112'> +4.8464523e+02 </wgt>
<wgt id='113'> +4.6730387e+02 </wgt>
<wgt id='114'> +5.0803407e+02 </wgt>
<wgt id='115'> +5.0831180e+02 </wgt>
<wgt id='116'> +5.0001078e+02 </wgt>
<wgt id='117'> +5.1205308e+02 </wgt>
<wgt id='118'> +5.1335081e+02 </wgt>
<wgt id='119'> +4.8784240e+02 </wgt>
<wgt id='120'> +5.0393985e+02 </wgt>
<wgt id='121'> +4.9340004e+02 </wgt>
<wgt id='122'> +4.9924293e+02 </wgt>
<wgt id='123'> +5.0917658e+02 </wgt>
<wgt id='124'> +5.3348154e+02 </wgt>
<wgt id='125'> +5.3528736e+02 </wgt>
<wgt id='126'> +5.2109700e+02 </wgt>
<wgt id='127'> +5.1763197e+02 </wgt>
<wgt id='128'> +4.7112580e+02 </wgt>
<wgt id='129'> +5.6818163e+02 </wgt>
<wgt id='130'> +5.0623965e+02 </wgt>
<wgt id='131'> +5.3946110e+02 </wgt>
<wgt id='132'> +4.9887568e+02 </wgt>
<wgt id='133'> +4.9870811e+02 </wgt>
<wgt id='134'> +4.7613217e+02 </wgt>
<wgt id='135'> +5.1738051e+02 </wgt>
<wgt id='136'> +4.8442063e+02 </wgt>
<wgt id='137'> +4.7455484e+02 </wgt>
<wgt id='138'> +4.5566056e+02 </wgt>
<wgt id='139'> +5.1295493e+02 </wgt>
<wgt id='140'> +5.3688795e+02 </wgt>
<wgt id='141'> +5.0287175e+02 </wgt>
<wgt id='142'> +5.1117320e+02 </wgt>
<wgt id='143'> +5.0025871e+02 </wgt>
<wgt id='144'> +5.0721969e+02 </wgt>
<wgt id='145'> +5.0582364e+02 </wgt>
</rwgt>
</event>
<event>
 4      1 +5.0481800e+02 1.90393100e+02 7.54677100e-03 1.15810700e-01
       21 -1    0    0  503  502 +0.0000000000e+00 +0.0000000000e+00 +6.4398800860e+02 6.4398800860e+02 0.0000000000e+00 0.0000e+00 -1.0000e+00
       21 -1    0    0  501  503 -0.0000000000e+00 -0.0000000000e+00 -8.8385992829e+01 8.8385992829e+01 0.0000000000e+00 0.0000e+00 -1.0000e+00
        6  1    1    2  501    0 -8.8530911056e+00 +7.9007298886e+01 +5.7131445671e+01 1.9878011114e+02 1.7300000000e+02 0.0000e+00 -1.0000e+00
       -6  1    1    2    0  502 +8.8530911056e+00 -7.9007298886e+01 +4.9847057010e+02 5.3359389029e+02 1.7300000000e+02 0.0000e+00 -1.0000e+00
<mgrwt>
<rscale>  2 0.19039309E+03</rscale>
<asrwt>0</asrwt>
<pdfrwt beam="1">  1       21 0.99075076E-01 0.19039309E+03</pdfrwt>
<pdfrwt beam="2">  1       21 0.13597845E-01 0.19039309E+03</pdfrwt>
<totfact> 0.39382880E+04</totfact>
</mgrwt>
<rwgt>
<wgt id='1'> +6.5741470e+02 </wgt>
<wgt id='2'> +5.9553503e+02 </wgt>
<wgt id='3'> +5.0481800e+02 </wgt>
<wgt id='4'> +6.5741470e+02 </wgt>
<wgt id='5'> +4.6487629e+02 </wgt>
<wgt id='6'> +6.1982179e+02 </wgt>
<wgt id='7'> +5.5730297e+02 </wgt>
<wgt id='8'> +4.6796509e+02 </wgt>
<wgt id='9'> +6.1982178e+02 </wgt>
<wgt id='10'> +4.3091316e+02 </wgt>
<wgt id='11'> +5.7457334e+02 </wgt>
<wgt id='12'> +5.1659347e+02 </wgt>
<wgt id='13'> +4.3394850e+02 </wgt>
<wgt id='14'> +5.7457333e+02 </wgt>
<wgt id='15'> +3.9971784e+02 </wgt>
<wgt id='16'> +5.3543580e+02 </wgt>
<wgt id='17'> +4.9168629e+02 </wgt>
<wgt id='18'> +4.2486617e+02 </wgt>
<wgt id='19'> +5.3543580e+02 </wgt>
<wgt id='20'> +3.9313294e+02 </wgt>
<wgt id='21'> +4.6012109e+02 </wgt>
<wgt id='22'> +3.9384994e+02 </wgt>
<wgt id='23'> +5.0481800e+02 </wgt>
<wgt id='24'> +3.6441127e+02 </wgt>
<wgt id='25'> +4.6796509e+02 </wgt>
<wgt id='26'> +4.2651047e+02 </wgt>
<wgt id='27'> +3.6522081e+02 </wgt>
<wgt id='28'> +4.6796509e+02 </wgt>
<wgt id='29'> +3.3803025e+02 </wgt>
<wgt id='30'> +4.5063480e+02 </wgt>
<wgt id='31'> +4.1604423e+02 </wgt>
<wgt id='32'> +3.6253356e+02 </wgt>
<wgt id='33'> +4.5063480e+02 </wgt>
<wgt id='34'> +3.3679904e+02 </wgt>
<wgt id='35'> +4.2486617e+02 </wgt>
<wgt id='36'> +3.8933509e+02 </wgt>
<wgt id='37'> +3.3606776e+02 </wgt>
<wgt id='38'> +4.2486617e+02 </wgt>
<wgt id='39'> +3.1219303e+02 </wgt>
<wgt id='40'> +3.9384994e+02 </wgt>
<wgt id='41'> +3.6089520e+02 </wgt>
<wgt id='42'> +3.1163884e+02 </wgt>
<wgt id='43'> +3.9384994e+02 </wgt>
<wgt id='44'> +2.8959227e+02 </wgt>
<wgt id='45'> +5.0481800e+02 </wgt>
<wgt id='46'> +5.1441029e+02 </wgt>
<wgt id='47'> +5.2028601e+02 </wgt>
<wgt id='48'> +5.0754668e+02 </wgt>
<wgt id='49'> +4.9621056e+02 </wgt>
<wgt id='50'> +5.9893998e+02 </wgt>
<wgt id='51'> +4.9178689e+02 </wgt>
<wgt id='52'> +5.0287431e+02 </wgt>
<wgt id='53'> +4.9992864e+02 </wgt>
<wgt id='54'> +5.1339563e+02 </wgt>
<wgt id='55'> +4.7815221e+02 </wgt>
<wgt id='56'> +4.6276960e+02 </wgt>
<wgt id='57'> +5.0645537e+02 </wgt>
<wgt id='58'> +4.9455269e+02 </wgt>
<wgt id='59'> +5.2161778e+02 </wgt>
<wgt id='60'> +5.0150484e+02 </wgt>
<wgt id='61'> +4.4927876e+02 </wgt>
<wgt id='62'> +4.9426872e+02 </wgt>
<wgt id='63'> +5.0773908e+02 </wgt>
<wgt id='64'> +4.9638200e+02 </wgt>
<wgt id='65'> +5.6099830e+02 </wgt>
<wgt id='66'> +4.9613070e+02 </wgt>
<wgt id='67'> +5.0782030e+02 </wgt>
<wgt id='68'> +5.5586597e+02 </wgt>
<wgt id='69'> +5.0366398e+02 </wgt>
<wgt id='70'> +4.9952675e+02 </wgt>
<wgt id='71'> +5.0875530e+02 </wgt>
<wgt id='72'> +4.8595844e+02 </wgt>
<wgt id='73'> +4.8848217e+02 </wgt>
<wgt id='74'> +5.3349676e+02 </wgt>
<wgt id='75'> +5.1702396e+02 </wgt>
<wgt id='76'> +4.9858782e+02 </wgt>
<wgt id='77'> +4.9335629e+02 </wgt>
<wgt id='78'> +4.8338671e+02 </wgt>
<wgt id='79'> +4.9860585e+02 </wgt>
<wgt id='80'> +4.9053940e+02 </wgt>
<wgt id='81'> +4.9634855e+02 </wgt>
<wgt id='82'> +4.9898035e+02 </wgt>
<wgt id='83'> +5.1043964e+02 </wgt>
<wgt id='84'> +5.4110860e+02 </wgt>
<wgt id='85'> +5.1344597e+02 </wgt>
<wgt id='86'> +5.0734845e+02 </wgt>
<wgt id='87'> +5.0747776e+02 </wgt>
<wgt id='88'> +5.0708560e+02 </wgt>
<wgt id='89'> +5.0858890e+02 </wgt>
<wgt id='90'> +5.1248760e+02 </wgt>
<wgt id='91'> +5.1593832e+02 </wgt>
<wgt id='92'> +4.6264167e+02 </wgt>
<wgt id='93'> +5.0182745e+02 </wgt>
<wgt id='94'> +4.9096868e+02 </wgt>
<wgt id='95'> +4.9882753e+02 </wgt>
<wgt id='96'> +5.3985396e+02 </wgt>
<wgt id='97'> +4.9902874e+02 </wgt>
<wgt id='98'> +4.9456087e+02 </wgt>
<wgt id='99'> +4.7761940e+02 </wgt>
<wgt id='100'> +4.7065290e+02 </wgt>
<wgt id='101'> +5.5489400e+02 </wgt>
<wgt id='102'> +5.1746655e+02 </wgt>
<wgt id='103'> +5.4104389e+02 </wgt>
<wgt id='104'> +5.0983164e+02 </wgt>
<wgt id='105'> +5.2158361e+02 </wgt>
<wgt id='106'> +4.6275659e+02 </wgt>
<wgt id='107'> +4.8368067e+02 </wgt>
<wgt id='108'> +4.4818981e+02 </wgt>
<wgt id='109'> +4.7699880e+02 </wgt>
<wgt id='110'> +4.9958964e+02 </wgt>
<wgt id='111'> +4.9153966e+02 </wgt>
<wgt id='112'> +4.8110442e+02 </wgt>
<wgt id='113'> +4.7033563e+02 </wgt>
<wgt id='114'> +4.9747799e+02 </wgt>
<wgt id='115'> +4.8123589e+02 </wgt>
<wgt id='116'> +5.2098518e+02 </wgt>
<wgt id='117'> +5.0020699e+02 </wgt>
<wgt id='118'> +5.2725933e+02 </wgt>
<wgt id='119'> +4.9500145e+02 </wgt>
<wgt id='120'> +4.9471592e+02 </wgt>
<wgt id='121'> +4.9577675e+02 </wgt>
<wgt id='122'> +4.9900191e+02 </wgt>
<wgt id='123'> +5.0715705e+02 </wgt>
<wgt id='124'> +5.5617086e+02 </wgt>
<wgt id='125'> +5.6289146e+02 </wgt>
<wgt id='126'> +5.1909034e+02 </wgt>
<wgt id='127'> +5.1633820e+02 </wgt>
<wgt id='128'> +4.6113692e+02 </wgt>
<wgt id='129'> +5.6365592e+02 </wgt>
<wgt id='130'> +5.0075175e+02 </wgt>
<wgt id='131'> +5.2491308e+02 </wgt>
<wgt id='132'> +5.2745903e+02 </wgt>
<wgt id='133'> +5.1786759e+02 </wgt>
<wgt id='134'> +4.9086678e+02 </wgt>
<wgt id='135'> +5.1105759e+02 </wgt>
<wgt id='136'> +5.2018979e+02 </wgt>
<wgt id='137'> +4.8428202e+02 </wgt>
<wgt id='138'> +4.7382464e+02 </wgt>
<wgt id='139'> +5.1933301e+02 </wgt>
<wgt id='140'> +5.2015932e+02 </wgt>
<wgt id='141'> +5.1438240e+02 </wgt>
<wgt id='142'> +4.7604596e+02 </wgt>
<wgt id='143'> +5.1339174e+02 </wgt>
<wgt id='144'> +4.9423487e+02 </wgt>
<wgt id='145'> +4.9977715e+02 </wgt>
</rwgt>
</event>
<event>
 4      1 +5.0481800e+02 1.80307100e+02 7.54677100e-03 1.16750600e-01
       21 -1    0    0  501  502 +0.0000000000e+00 +0.0000000000e+00 +1.3988362790e+02 1.3988362790e+02 0.0000000000e+00 0.0000e+00 -1.0000e+00
       21 -1    0    0  502  503 -0.0000000000e+00 -0.0000000000e+00 -4.6560116542e+02 4.6560116542e+02 0.0000000000e+00 0.0000e+00 -1.0000e+00
        6  1    1    2  501    0 -2.9116339322e+01 -4.1639855758e+01 +5.1391001854e+01 1.8748779660e+02 1.7300000000e+02 0.0000e+00 -1.0000e+00
       -6  1    1    2    0  503 +2.9116339322e+01 +4.1639855758e+01 -3.7710853937e+02 4.1799699673e+02 1.7300000000e+02 0.0000e+00 -1.0000e+00
<mgrwt>
<rscale>  2 0.18030707E+03</rscale>
<asrwt>0</asrwt>
<pdfrwt beam="1">  1       21 0.21520558E-01 0.18030707E+03</pdfrwt>
<pdfrwt beam="2">  1       21 0.71630948E-01 0.18030707E+03</pdfrwt>
<totfact> 0.35662223E+04</totfact>
</mgrwt>
<rwgt>
<wgt id='1'> +6.5790196e+02 </wgt>
<wgt id='2'> +6.4769458e+02 </wgt>
<wgt id='3'> +5.0481800e+02 </wgt>
<wgt id='4'> +6.5790196e+02 </wgt>
<wgt id='5'> +4.4484333e+02 </wgt>
<wgt id='6'> +6.2137809e+02 </wgt>
<wgt id='7'> +6.1119676e+02 </wgt>
<wgt id='8'> +4.6856499e+02 </wgt>
<wgt id='9'> +6.2137809e+02 </wgt>
<wgt id='10'> +4.1273249e+02 </wgt>
<wgt id='11'> +5.7675443e+02 </wgt>
<wgt id='12'> +5.6710698e+02 </wgt>
<wgt id='13'> +4.3490442e+02 </wgt>
<wgt id='14'> +5.7675443e+02 </wgt>
<wgt id='15'> +3.8329380e+02 </wgt>
<wgt id='16'> +5.3449060e+02 </wgt>
<wgt id='17'> +5.2716032e+02 </wgt>
<wgt id='18'> +4.2417295e+02 </wgt>
<wgt id='19'> +5.3449060e+02 </wgt>
<wgt id='20'> +3.7669975e+02 </wgt>
<wgt id='21'> +4.9745465e+02 </wgt>
<wgt id='22'> +3.9371139e+02 </wgt>
<wgt id='23'> +5.0481800e+02 </wgt>
<wgt id='24'> +3.4950783e+02 </wgt>
<wgt id='25'> +4.6856499e+02 </wgt>
<wgt id='26'> +4.6156986e+02 </wgt>
<wgt id='27'> +3.6542812e+02 </wgt>
<wgt id='28'> +4.6856499e+02 </wgt>
<wgt id='29'> +3.2457872e+02 </wgt>
<wgt id='30'> +4.4910533e+02 </wgt>
<wgt id='31'> +4.4348314e+02 </wgt>
<wgt id='32'> +3.6158363e+02 </wgt>
<wgt id='33'> +4.4910533e+02 </wgt>
<wgt id='34'> +3.2309513e+02 </wgt>
<wgt id='35'> +4.2417295e+02 </wgt>
<wgt id='36'> +4.1849271e+02 </wgt>
<wgt id='37'> +3.3561685e+02 </wgt>
<wgt id='38'> +4.2417295e+02 </wgt>
<wgt id='39'> +2.9977263e+02 </wgt>
<wgt id='40'> +3.9371139e+02 </wgt>
<wgt id='41'> +3.8830399e+02 </wgt>
<wgt id='42'> +3.1150695e+02 </wgt>
<wgt id='43'> +3.9371139e+02 </wgt>
<wgt id='44'> +2.7839095e+02 </wgt>
<wgt id='45'> +5.0481800e+02 </wgt>
<wgt id='46'> +5.1044058e+02 </wgt>
<wgt id='47'> +5.2363931e+02 </wgt>
<wgt id='48'> +5.0869781e+02 </wgt>
<wgt id='49'> +5.0169037e+02 </wgt>
<wgt id='50'> +6.0088393e+02 </wgt>
<wgt id='51'> +4.9426590e+02 </wgt>
<wgt id='52'> +5.0360225e+02 </wgt>
<wgt id='53'> +5.0515591e+02 </wgt>
<wgt id='54'> +5.0915158e+02 </wgt>
<wgt id='55'> +4.5755772e+02 </wgt>
<wgt id='56'> +4.6341185e+02 </wgt>
<wgt id='57'> +4.9579527e+02 </wgt>
<wgt id='58'> +5.0219837e+02 </wgt>
<wgt id='59'> +5.0783003e+02 </wgt>
<wgt id='60'> +4.9218069e+02 </wgt>
<wgt id='61'> +4.6954936e+02 </wgt>
<wgt id='62'> +4.9784353e+02 </wgt>
<wgt id='63'> +5.0544704e+02 </wgt>
<wgt id='64'> +4.9612401e+02 </wgt>
<wgt id='65'> +5.8685624e+02 </wgt>
<wgt id='66'> +4.9378227e+02 </wgt>
<wgt id='67'> +5.0888498e+02 </wgt>
<wgt id='68'> +5.4890450e+02 </wgt>
<wgt id='69'> +4.9829709e+02 </wgt>
<wgt id='70'> +4.9602597e+02 </wgt>
<wgt id='71'> +5.1337377e+02 </wgt>
<wgt id='72'> +4.8524716e+02 </wgt>
<wgt id='73'> +4.9445176e+02 </wgt>
<wgt id='74'> +5.2667591e+02 </wgt>
<wgt id='75'> +5.1677511e+02 </wgt>
<wgt id='76'> +4.9176511e+02 </wgt>
<wgt id='77'> +4.9027791e+02 </wgt>
<wgt id='78'> +4.9589027e+02 </wgt>
<wgt id='79'> +4.8949101e+02 </wgt>
<wgt id='80'> +4.9655821e+02 </wgt>
<wgt id='81'> +4.9415926e+02 </wgt>
<wgt id='82'> +5.1072637e+02 </wgt>
<wgt id='83'> +5.1538242e+02 </wgt>
<wgt id='84'> +5.5299488e+02 </wgt>
<wgt id='85'> +5.2677895e+02 </wgt>
<wgt id='86'> +5.0448974e+02 </wgt>
<wgt id='87'> +5.0686316e+02 </wgt>
<wgt id='88'> +5.1217568e+02 </wgt>
<wgt id='89'> +5.1708419e+02 </wgt>
<wgt id='90'> +5.1322959e+02 </wgt>
<wgt id='91'> +5.3116185e+02 </wgt>
<wgt id='92'> +4.5879031e+02 </wgt>
<wgt id='93'> +4.9915740e+02 </wgt>
<wgt id='94'> +4.9730864e+02 </wgt>
<wgt id='95'> +4.8724946e+02 </wgt>
<wgt id='96'> +5.4765214e+02 </wgt>
<wgt id='97'> +5.0754593e+02 </wgt>
<wgt id='98'> +4.8508972e+02 </wgt>
<wgt id='99'> +4.8580468e+02 </wgt>
<wgt id='100'> +4.8814261e+02 </wgt>
<wgt id='101'> +5.4349381e+02 </wgt>
<wgt id='102'> +5.0244246e+02 </wgt>
<wgt id='103'> +5.4997117e+02 </wgt>
<wgt id='104'> +5.0656009e+02 </wgt>
<wgt id='105'> +5.2251941e+02 </wgt>
<wgt id='106'> +4.5886449e+02 </wgt>
<wgt id='107'> +4.8933180e+02 </wgt>
<wgt id='108'> +4.4550027e+02 </wgt>
<wgt id='109'> +4.7174423e+02 </wgt>
<wgt id='110'> +5.0357467e+02 </wgt>
<wgt id='111'> +4.8998166e+02 </wgt>
<wgt id='112'> +4.7746368e+02 </wgt>
<wgt id='113'> +4.6213568e+02 </wgt>
<wgt id='114'> +4.9677941e+02 </wgt>
<wgt id='115'> +4.9309941e+02 </wgt>
<wgt id='116'> +5.1298550e+02 </wgt>
<wgt id='117'> +5.0637058e+02 </wgt>
<wgt id='118'> +5.2446090e+02 </wgt>
<wgt id='119'> +4.8585392e+02 </wgt>
<wgt id='120'> +4.9652529e+02 </wgt>
<wgt id='121'> +4.9082980e+02 </wgt>
<wgt id='122'> +4.9831790e+02 </wgt>
<wgt id='123'> +5.1127810e+02 </wgt>
<wgt id='124'> +5.4942231e+02 </wgt>
<wgt id='125'> +5.5108314e+02 </wgt>
<wgt id='126'> +5.2474264e+02 </wgt>
<wgt id='127'> +5.2085532e+02 </wgt>
<wgt id='128'> +4.6253994e+02 </wgt>
<wgt id='129'> +5.7252186e+02 </wgt>
<wgt id='130'> +5.0609710e+02 </wgt>
<wgt id='131'> +5.3677719e+02 </wgt>
<wgt id='132'> +5.1133628e+02 </wgt>
<wgt id='133'> +5.0892916e+02 </wgt>
<wgt id='134'> +4.7962885e+02 </wgt>
<wgt id='135'> +5.1638081e+02 </wgt>
<wgt id='136'> +4.9677389e+02 </wgt>
<wgt id='137'> +4.7811910e+02 </wgt>
<wgt id='138'> +4.6521608e+02 </wgt>
<wgt id='139'> +5.1779031e+02 </wgt>
<wgt id='140'> +5.3061682e+02 </wgt>
<wgt id='141'> +5.0711296e+02 </wgt>
<wgt id='142'> +4.9453003e+02 </wgt>
<wgt id='143'> +5.0621587e+02 </wgt>
<wgt id='144'> +4.9990716e+02 </wgt>
<wgt id='145'> +5.0512720e+02 </wgt>
</rwgt>
</event>
<event>
 4      1 +5.0481800e+02 3.32862700e+02 7.54677100e-03 1.06987700e-01
       21 -1    0    0  503  502 +0.0000000000e+00 +0.0000000000e+00 +2.6380516111e+02 2.6380516111e+02 0.0000000000e+00 0.0000e+00 1.0000e+00
       21 -1    0    0  501  503 -0.0000000000e+00 -0.0000000000e+00 -5.9987578208e+02 5.9987578208e+02 0.0000000000e+00 0.0000e+00 -1.0000e+00
        6  1    1    2  501    0 -2.5517219134e+02 -1.2552186356e+02 -4.0450838001e+02 5.2385552871e+02 1.7300000000e+02 0.0000e+00 -1.0000e+00
       -6  1    1    2    0  502 +2.5517219134e+02 +1.2552186356e+02 +6.8437759037e+01 3.3982541448e+02 1.7300000000e+02 0.0000e+00 1.0000e+00
<mgrwt>
<rscale>  2 0.33286271E+03</rscale>
<asrwt>0</asrwt>
<pdfrwt beam="1">  1       21 0.40585410E-01 0.33286271E+03</pdfrwt>
<pdfrwt beam="2">  1       21 0.92288581E-01 0.33286271E+03</pdfrwt>
<totfact> 0.53322305E+03</totfact>
</mgrwt>
<rwgt>
<wgt id='1'> +6.6918003e+02 </wgt>
<wgt id='2'> +5.1537979e+02 </wgt>
<wgt id='3'> +5.0481800e+02 </wgt>
<wgt id='4'> +6.6918003e+02 </wgt>
<wgt id='5'> +4.7090946e+02 </wgt>
<wgt id='6'> +6.0246595e+02 </wgt>
<wgt id='7'> +4.6480718e+02 </wgt>
<wgt id='8'> +4.5541091e+02 </wgt>
<wgt id='9'> +6.0246595e+02 </wgt>
<wgt id='10'> +4.2523304e+02 </wgt>
<wgt id='11'> +5.4350195e+02 </wgt>
<wgt id='12'> +4.2079531e+02 </wgt>
<wgt id='13'> +4.1240866e+02 </wgt>
<wgt id='14'> +5.4350195e+02 </wgt>
<wgt id='15'> +3.8546165e+02 </wgt>
<wgt id='16'> +5.6071903e+02 </wgt>
<wgt id='17'> +4.3824365e+02 </wgt>
<wgt id='18'> +4.2968844e+02 </wgt>
<wgt id='19'> +5.6071903e+02 </wgt>
<wgt id='20'> +4.0213987e+02 </wgt>
<wgt id='21'> +3.9524016e+02 </wgt>
<wgt id='22'> +3.8763436e+02 </wgt>
<wgt id='23'> +5.0481800e+02 </wgt>
<wgt id='24'> +3.6313384e+02 </wgt>
<wgt id='25'> +4.5541091e+02 </wgt>
<wgt id='26'> +3.5781549e+02 </wgt>
<wgt id='27'> +3.5103192e+02 </wgt>
<wgt id='28'> +4.5541091e+02 </wgt>
<wgt id='29'> +3.2917049e+02 </wgt>
<wgt id='30'> +4.7726999e+02 </wgt>
<wgt id='31'> +3.7721428e+02 </wgt>
<wgt id='32'> +3.7016262e+02 </wgt>
<wgt id='33'> +4.7726999e+02 </wgt>
<wgt id='34'> +3.4740416e+02 </wgt>
<wgt id='35'> +4.2968844e+02 </wgt>
<wgt id='36'> +3.4019942e+02 </wgt>
<wgt id='37'> +3.3393440e+02 </wgt>
<wgt id='38'> +4.2968844e+02 </wgt>
<wgt id='39'> +3.1370728e+02 </wgt>
<wgt id='40'> +3.8763436e+02 </wgt>
<wgt id='41'> +3.0798647e+02 </wgt>
<wgt id='42'> +3.0240259e+02 </wgt>
<wgt id='43'> +3.8763436e+02 </wgt>
<wgt id='44'> +2.8436672e+02 </wgt>
<wgt id='45'> +5.0481800e+02 </wgt>
<wgt id='46'> +5.2307952e+02 </wgt>
<wgt id='47'> +5.2890754e+02 </wgt>
<wgt id='48'> +5.1474771e+02 </wgt>
<wgt id='49'> +4.9589528e+02 </wgt>
<wgt id='50'> +6.3047876e+02 </wgt>
<wgt id='51'> +4.9219353e+02 </wgt>
<wgt id='52'> +5.0311306e+02 </wgt>
<wgt id='53'> +4.9580282e+02 </wgt>
<wgt id='54'> +5.1313625e+02 </wgt>
<wgt id='55'> +4.7031483e+02 </wgt>
<wgt id='56'> +4.5330131e+02 </wgt>
<wgt id='57'> +5.0254048e+02 </wgt>
<wgt id='58'> +4.8558982e+02 </wgt>
<wgt id='59'> +5.2690002e+02 </wgt>
<wgt id='60'> +5.0561130e+02 </wgt>
<wgt id='61'> +4.3773698e+02 </wgt>
<wgt id='62'> +4.9639462e+02 </wgt>
<wgt id='63'> +5.0778419e+02 </wgt>
<wgt id='64'> +4.8772883e+02 </wgt>
<wgt id='65'> +5.6864464e+02 </wgt>
<wgt id='66'> +4.9869083e+02 </wgt>
<wgt id='67'> +5.0816336e+02 </wgt>
<wgt id='68'> +5.6798924e+02 </wgt>
<wgt id='69'> +5.1809881e+02 </wgt>
<wgt id='70'> +4.9801878e+02 </wgt>
<wgt id='71'> +5.0843623e+02 </wgt>
<wgt id='72'> +4.6536897e+02 </wgt>
<wgt id='73'> +4.8361115e+02 </wgt>
<wgt id='74'> +5.4401432e+02 </wgt>
<wgt id='75'> +5.2165357e+02 </wgt>
<wgt id='76'> +4.9374095e+02 </wgt>
<wgt id='77'> +4.9695154e+02 </wgt>
<wgt id='78'> +4.7572145e+02 </wgt>
<wgt id='79'> +5.0272825e+02 </wgt>
<wgt id='80'> +4.8710607e+02 </wgt>
<wgt id='81'> +4.9244765e+02 </wgt>
<wgt id='82'> +4.9732784e+02 </wgt>
<wgt id='83'> +5.1839884e+02 </wgt>
<wgt id='84'> +5.5086669e+02 </wgt>
<wgt id='85'> +5.1636926e+02 </wgt>
<wgt id='86'> +5.1418534e+02 </wgt>
<wgt id='87'> +5.1016006e+02 </wgt>
<wgt id='88'> +5.1295392e+02 </wgt>
<wgt id='89'> +5.1219732e+02 </wgt>
<wgt id='90'> +5.1375208e+02 </wgt>
<wgt id='91'> +5.1629897e+02 </wgt>
<wgt id='92'> +4.4233472e+02 </wgt>
<wgt id='93'> +5.0673902e+02 </wgt>
<wgt id='94'> +4.8440171e+02 </wgt>
<wgt id='95'> +4.9035208e+02 </wgt>
<wgt id='96'> +5.5680600e+02 </wgt>
<wgt id='97'> +4.9473052e+02 </wgt>
<wgt id='98'> +4.9556063e+02 </wgt>
<wgt id='99'> +4.7340643e+02 </wgt>
<wgt id='100'> +4.5690486e+02 </wgt>
<wgt id='101'> +5.7337808e+02 </wgt>
<wgt id='102'> +5.3219666e+02 </wgt>
<wgt id='103'> +5.4981451e+02 </wgt>
<wgt id='104'> +5.1709199e+02 </wgt>
<wgt id='105'> +5.1410425e+02 </wgt>
<wgt id='106'> +4.4576086e+02 </wgt>
<wgt id='107'> +4.6933997e+02 </wgt>
<wgt id='108'> +4.3289685e+02 </wgt>
<wgt id='109'> +4.6563701e+02 </wgt>
<wgt id='110'> +4.9498760e+02 </wgt>
<wgt id='111'> +4.8510530e+02 </wgt>
<wgt id='112'> +4.7272771e+02 </wgt>
<wgt id='113'> +4.6137450e+02 </wgt>
<wgt id='114'> +4.8224335e+02 </wgt>
<wgt id='115'> +4.7128357e+02 </wgt>
<wgt id='116'> +5.3572185e+02 </wgt>
<wgt id='117'> +4.9719814e+02 </wgt>
<wgt id='118'> +5.3973266e+02 </wgt>
<wgt id='119'> +4.8800310e+02 </wgt>
<wgt id='120'> +4.8799800e+02 </wgt>
<wgt id='121'> +4.8774003e+02 </wgt>
<wgt id='122'> +4.9635908e+02 </wgt>
<wgt id='123'> +5.1263441e+02 </wgt>
<wgt id='124'> +5.7212866e+02 </wgt>
<wgt id='125'> +5.7768665e+02 </wgt>
<wgt id='126'> +5.2714858e+02 </wgt>
<wgt id='127'> +5.2164240e+02 </wgt>
<wgt id='128'> +4.5547822e+02 </wgt>
<wgt id='129'> +5.6981574e+02 </wgt>
<wgt id='130'> +5.0679288e+02 </wgt>
<wgt id='131'> +5.2570962e+02 </wgt>
<wgt id='132'> +5.3126568e+02 </wgt>
<wgt id='133'> +5.2699001e+02 </wgt>
<wgt id='134'> +4.9000597e+02 </wgt>
<wgt id='135'> +5.1131637e+02 </wgt>
<wgt id='136'> +5.2146156e+02 </wgt>
<wgt id='137'> +4.8949418e+02 </wgt>
<wgt id='138'> +4.8798070e+02 </wgt>
<wgt id='139'> +5.2381462e+02 </wgt>
<wgt id='140'> +5.1671370e+02 </wgt>
<wgt id='141'> +5.1843806e+02 </wgt>
<wgt id='142'> +4.6495399e+02 </wgt>
<wgt id='143'> +5.1555335e+02 </wgt>
<wgt id='144'> +4.8621730e+02 </wgt>
<wgt id='145'> +5.0082842e+02 </wgt>
</rwgt>
</event>
<event>
 4      1 +5.0481800e+02 1.84125800e+02 7.54677100e-03 1.16386900e-01
       21 -1    0    0  503  502 +0.0000000000e+00 +0.0000000000e+00 +6.7378940812e+02 6.7378940812e+02 0.0000000000e+00 0.0000e+00 1.0000e+00
       21 -1    0    0  501  503 -0.0000000000e+00 -0.0000000000e+00 -5.0494368053e+01 5.0494368053e+01 0.0000000000e+00 0.0000e+00 -1.0000e+00
        6  1    1    2  501    0 +1.9349825942e+01 +5.9990770767e+01 +3.3317828461e+02 3.8067056319e+02 1.7300000000e+02 0.0000e+00 1.0000e+00
       -6  1    1    2    0  502 -1.9349825942e+01 -5.9990770767e+01 +2.9011675546e+02 3.4361321299e+02 1.7300000000e+02 0.0000e+00 1.0000e+00
<mgrwt>
<rscale>  2 0.18412579E+03</rscale>
<asrwt>0</asrwt>
<pdfrwt beam="1">  1       21 0.10365990E+00 0.18412579E+03</pdfrwt>
<pdfrwt beam="2">  1       21 0.77683648E-02 0.18412579E+03</pdfrwt>
<totfact> 0.95498913E+04</totfact>
</mgrwt>
<rwgt>
<wgt id='1'> +6.4811972e+02 </wgt>
<wgt id='2'> +7.1120081e+02 </wgt>
<wgt id='3'> +5.0481800e+02 </wgt>
<wgt id='4'> +6.4811971e+02 </wgt>
<wgt id='5'> +5.0450540e+02 </wgt>
<wgt id='6'> +6.2076746e+02 </wgt>
<wgt id='7'> +6.8426000e+02 </wgt>
<wgt id='8'> +4.7424694e+02 </wgt>
<wgt id='9'> +6.2076746e+02 </wgt>
<wgt id='10'> +4.7394384e+02 </wgt>
<wgt id='11'> +5.8317468e+02 </wgt>
<wgt id='12'> +6.4623536e+02 </wgt>
<wgt id='13'> +4.4489430e+02 </wgt>
<wgt id='14'> +5.8317467e+02 </wgt>
<wgt id='15'> +4.4460943e+02 </wgt>
<wgt id='16'> +5.2706129e+02 </wgt>
<wgt id='17'> +5.7273672e+02 </wgt>
<wgt id='18'> +4.2444870e+02 </wgt>
<wgt id='19'> +5.2706129e+02 </wgt>
<wgt id='20'> +4.2420862e+02 </wgt>
<wgt id='21'> +5.5104104e+02 </wgt>
<wgt id='22'> +3.9874469e+02 </wgt>
<wgt id='23'> +5.0481800e+02 </wgt>
<wgt id='24'> +3.9851122e+02 </wgt>
<wgt id='25'> +4.7424695e+02 </wgt>
<wgt id='26'> +5.2041943e+02 </wgt>
<wgt id='27'> +3.7406512e+02 </wgt>
<wgt id='28'> +4.7424694e+02 </wgt>
<wgt id='29'> +3.7384565e+02 </wgt>
<wgt id='30'> +4.4315076e+02 </wgt>
<wgt id='31'> +4.7671016e+02 </wgt>
<wgt id='32'> +3.6195705e+02 </wgt>
<wgt id='33'> +4.4315075e+02 </wgt>
<wgt id='34'> +3.6176399e+02 </wgt>
<wgt id='35'> +4.2444870e+02 </wgt>
<wgt id='36'> +4.5865203e+02 </wgt>
<wgt id='37'> +3.4003745e+02 </wgt>
<wgt id='38'> +4.2444870e+02 </wgt>
<wgt id='39'> +3.3984931e+02 </wgt>
<wgt id='40'> +3.9874470e+02 </wgt>
<wgt id='41'> +4.3316453e+02 </wgt>
<wgt id='42'> +3.1899146e+02 </wgt>
<wgt id='43'> +3.9874469e+02 </wgt>
<wgt id='44'> +3.1881458e+02 </wgt>
<wgt id='45'> +5.0481800e+02 </wgt>
<wgt id='46'> +5.1403114e+02 </wgt>
<wgt id='47'> +5.1656526e+02 </wgt>
<wgt id='48'> +5.0616836e+02 </wgt>
<wgt id='49'> +4.9576123e+02 </wgt>
<wgt id='50'> +5.8728417e+02 </wgt>
<wgt id='51'> +4.9189180e+02 </wgt>
<wgt id='52'> +5.0308738e+02 </wgt>
<wgt id='53'> +4.9833263e+02 </wgt>
<wgt id='54'> +5.1404467e+02 </wgt>
<wgt id='55'> +4.8711174e+02 </wgt>
<wgt id='56'> +4.6658983e+02 </wgt>
<wgt id='57'> +5.0988842e+02 </wgt>
<wgt id='58'> +4.9542169e+02 </wgt>
<wgt id='59'> +5.2482684e+02 </wgt>
<wgt id='60'> +5.0639456e+02 </wgt>
<wgt id='61'> +4.4807977e+02 </wgt>
<wgt id='62'> +4.9369279e+02 </wgt>
<wgt id='63'> +5.0867136e+02 </wgt>
<wgt id='64'> +4.9826871e+02 </wgt>
<wgt id='65'> +5.4635784e+02 </wgt>
<wgt id='66'> +4.9682375e+02 </wgt>
<wgt id='67'> +5.0734075e+02 </wgt>
<wgt id='68'> +5.5441934e+02 </wgt>
<wgt id='69'> +5.0200449e+02 </wgt>
<wgt id='70'> +5.0147127e+02 </wgt>
<wgt id='71'> +5.0700205e+02 </wgt>
<wgt id='72'> +4.9061634e+02 </wgt>
<wgt id='73'> +4.8925735e+02 </wgt>
<wgt id='74'> +5.3290955e+02 </wgt>
<wgt id='75'> +5.1570206e+02 </wgt>
<wgt id='76'> +5.0124076e+02 </wgt>
<wgt id='77'> +4.9494543e+02 </wgt>
<wgt id='78'> +4.8177978e+02 </wgt>
<wgt id='79'> +5.0192734e+02 </wgt>
<wgt id='80'> +4.8994116e+02 </wgt>
<wgt id='81'> +4.9822862e+02 </wgt>
<wgt id='82'> +4.9651977e+02 </wgt>
<wgt id='83'> +5.0654164e+02 </wgt>
<wgt id='84'> +5.3310980e+02 </wgt>
<wgt id='85'> +5.0903310e+02 </wgt>
<wgt id='86'> +5.0681311e+02 </wgt>
<wgt id='87'> +5.0741836e+02 </wgt>
<wgt id='88'> +5.0335610e+02 </wgt>
<wgt id='89'> +5.0627911e+02 </wgt>
<wgt id='90'> +5.1226041e+02 </wgt>
<wgt id='91'> +5.1108387e+02 </wgt>
<wgt id='92'> +4.6887452e+02 </wgt>
<wgt id='93'> +5.0254994e+02 </wgt>
<wgt id='94'> +4.9099241e+02 </wgt>
<wgt id='95'> +5.0336161e+02 </wgt>
<wgt id='96'> +5.3323046e+02 </wgt>
<wgt id='97'> +4.9722657e+02 </wgt>
<wgt id='98'> +4.9698812e+02 </wgt>
<wgt id='99'> +4.7813899e+02 </wgt>
<wgt id='100'> +4.7034573e+02 </wgt>
<wgt id='101'> +5.5361054e+02 </wgt>
<wgt id='102'> +5.1920183e+02 </wgt>
<wgt id='103'> +5.3584779e+02 </wgt>
<wgt id='104'> +5.0859057e+02 </wgt>
<wgt id='105'> +5.2166605e+02 </wgt>
<wgt id='106'> +4.6859851e+02 </wgt>
<wgt id='107'> +4.8554466e+02 </wgt>
<wgt id='108'> +4.5364384e+02 </wgt>
<wgt id='109'> +4.8163595e+02 </wgt>
<wgt id='110'> +5.0017685e+02 </wgt>
<wgt id='111'> +4.9292155e+02 </wgt>
<wgt id='112'> +4.8440020e+02 </wgt>
<wgt id='113'> +4.7594417e+02 </wgt>
<wgt id='114'> +4.9941387e+02 </wgt>
<wgt id='115'> +4.7829480e+02 </wgt>
<wgt id='116'> +5.2025109e+02 </wgt>
<wgt id='117'> +4.9833173e+02 </wgt>
<wgt id='118'> +5.2536356e+02 </wgt>
<wgt id='119'> +4.9933767e+02 </wgt>
<wgt id='120'> +4.9402461e+02 </wgt>
<wgt id='121'> +4.9927341e+02 </wgt>
<wgt id='122'> +4.9984178e+02 </wgt>
<wgt id='123'> +5.0433929e+02 </wgt>
<wgt id='124'> +5.5324822e+02 </wgt>
<wgt id='125'> +5.6160391e+02 </wgt>
<wgt id='126'> +5.1600676e+02 </wgt>
<wgt id='127'> +5.1394624e+02 </wgt>
<wgt id='128'> +4.6247068e+02 </wgt>
<wgt id='129'> +5.5740126e+02 </wgt>
<wgt id='130'> +4.9667114e+02 </wgt>
<wgt id='131'> +5.2050420e+02 </wgt>
<wgt id='132'> +5.3144870e+02 </wgt>
<wgt id='133'> +5.1874705e+02 </wgt>
<wgt id='134'> +4.9547259e+02 </wgt>
<wgt id='135'> +5.0942426e+02 </wgt>
<wgt id='136'> +5.2660610e+02 </wgt>
<wgt id='137'> +4.8563996e+02 </wgt>
<wgt id='138'> +4.7459524e+02 </wgt>
<wgt id='139'> +5.1917087e+02 </wgt>
<wgt id='140'> +5.1690571e+02 </wgt>
<wgt id='141'> +5.1478567e+02 </wgt>
<wgt id='142'> +4.7355493e+02 </wgt>
<wgt id='143'> +5.1568194e+02 </wgt>
<wgt id='144'> +4.9504608e+02 </wgt>
<wgt id='145'> +4.9800297e+02 </wgt>
</rwgt>
</event>
<event>
 4      1 +5.0481800e+02 2.57107800e+02 7.54677100e-03 1.10889300e-01
       21 -1    0    0  501  502 +0.0000000000e+00 +0.0000000000e+00 +9.0308918458e+02 9.0308918458e+02 0.0000000000e+00 0.0000e+00 1.0000e+00
       21 -1    0    0  502  503 -0.0000000000e+00 -0.0000000000e+00 -1.9751019239e+02 1.9751019239e+02 0.0000000000e+00 0.0000e+00 -1.0000e+00
        6  1    1    2  501    0 +9.2866630697e+01 -1.6598560581e+02 +7.8936680600e+02 8.3018334532e+02 1.7300000000e+02 0.0000e+00 1.0000e+00
       -6  1    1    2    0  503 -9.2866630697e+01 +1.6598560581e+02 -8.3787813807e+01 2.7041603166e+02 1.7300000000e+02 0.0000e+00 -1.0000e+00
<mgrwt>
<rscale>  2 0.25710782E+03</rscale>
<asrwt>0</asrwt>
<pdfrwt beam="1">  1       21 0.13893680E+00 0.25710782E+03</pdfrwt>
<pdfrwt beam="2">  1       21 0.30386184E-01 0.25710782E+03</pdfrwt>
<totfact> 0.36100131E+03</totfact>
</mgrwt>
<rwgt>
<wgt id='1'> +6.8270057e+02 </wgt>
<wgt id='2'> +5.3829220e+02 </wgt>
<wgt id='3'> +5.0481800e+02 </wgt>
<wgt id='4'> +6.8270057e+02 </wgt>
<wgt id='5'> +4.1166609e+02 </wgt>
<wgt id='6'> +6.0998816e+02 </wgt>
<wgt id='7'> +4.7874781e+02 </wgt>
<wgt id='8'> +4.4944914e+02 </wgt>
<wgt id='9'> +6.0998816e+02 </wgt>
<wgt id='10'> +3.6772663e+02 </wgt>
<wgt id='11'> +5.4308415e+02 </wgt>
<wgt id='12'> +4.2777818e+02 </wgt>
<wgt id='13'> +4.0200869e+02 </wgt>
<wgt id='14'> +5.4308415e+02 </wgt>
<wgt id='15'> +3.3001031e+02 </wgt>
<wgt id='16'> +5.6499382e+02 </wgt>
<wgt id='17'> +4.5453197e+02 </wgt>
<wgt id='18'> +4.2755020e+02 </wgt>
<wgt id='19'> +5.6499381e+02 </wgt>
<wgt id='20'> +3.5192605e+02 </wgt>
<wgt id='21'> +4.0425291e+02 </wgt>
<wgt id='22'> +3.8065613e+02 </wgt>
<wgt id='23'> +5.0481800e+02 </wgt>
<wgt id='24'> +3.1436299e+02 </wgt>
<wgt id='25'> +4.4944914e+02 </wgt>
<wgt id='26'> +3.6121434e+02 </wgt>
<wgt id='27'> +3.4047695e+02 </wgt>
<wgt id='28'> +4.4944914e+02 </wgt>
<wgt id='29'> +2.8211997e+02 </wgt>
<wgt id='30'> +4.7851546e+02 </wgt>
<wgt id='31'> +3.8888120e+02 </wgt>
<wgt id='32'> +3.6675574e+02 </wgt>
<wgt id='33'> +4.7851546e+02 </wgt>
<wgt id='34'> +3.0430443e+02 </wgt>
<wgt id='35'> +4.2755020e+02 </wgt>
<wgt id='36'> +3.4586424e+02 </wgt>
<wgt id='37'> +3.2652967e+02 </wgt>
<wgt id='38'> +4.2755020e+02 </wgt>
<wgt id='39'> +2.7182430e+02 </wgt>
<wgt id='40'> +3.8065614e+02 </wgt>
<wgt id='41'> +3.0904199e+02 </wgt>
<wgt id='42'> +2.9206367e+02 </wgt>
<wgt id='43'> +3.8065613e+02 </wgt>
<wgt id='44'> +2.4394431e+02 </wgt>
<wgt id='45'> +5.0481800e+02 </wgt>
<wgt id='46'> +5.2474223e+02 </wgt>
<wgt id='47'> +5.2666494e+02 </wgt>
<wgt id='48'> +5.1162300e+02 </wgt>
<wgt id='49'> +4.8401054e+02 </wgt>
<wgt id='50'> +6.2974712e+02 </wgt>
<wgt id='51'> +4.8494603e+02 </wgt>
<wgt id='52'> +4.9441489e+02 </wgt>
<wgt id='53'> +4.9680541e+02 </wgt>
<wgt id='54'> +5.2326288e+02 </wgt>
<wgt id='55'> +5.0093977e+02 </wgt>
<wgt id='56'> +4.5774599e+02 </wgt>
<wgt id='57'> +5.1679548e+02 </wgt>
<wgt id='58'> +4.7235309e+02 </wgt>
<wgt id='59'> +5.3957249e+02 </wgt>
<wgt id='60'> +5.0676739e+02 </wgt>
<wgt id='61'> +4.3563678e+02 </wgt>
<wgt id='62'> +4.8563343e+02 </wgt>
<wgt id='63'> +5.1594282e+02 </wgt>
<wgt id='64'> +4.9325908e+02 </wgt>
<wgt id='65'> +5.3582293e+02 </wgt>
<wgt id='66'> +5.0200108e+02 </wgt>
<wgt id='67'> +5.0735800e+02 </wgt>
<wgt id='68'> +5.8533532e+02 </wgt>
<wgt id='69'> +5.2902120e+02 </wgt>
<wgt id='70'> +5.0927387e+02 </wgt>
<wgt id='71'> +4.9613858e+02 </wgt>
<wgt id='72'> +4.6313260e+02 </wgt>
<wgt id='73'> +4.7097469e+02 </wgt>
<wgt id='74'> +5.5781097e+02 </wgt>
<wgt id='75'> +5.2921699e+02 </wgt>
<wgt id='76'> +5.0316755e+02 </wgt>
<wgt id='77'> +4.9196499e+02 </wgt>
<wgt id='78'> +4.5819057e+02 </wgt>
<wgt id='79'> +5.1478431e+02 </wgt>
<wgt id='80'> +4.7252147e+02 </wgt>
<wgt id='81'> +4.9976496e+02 </wgt>
<wgt id='82'> +4.8891923e+02 </wgt>
<wgt id='83'> +5.1179844e+02 </wgt>
<wgt id='84'> +5.3402876e+02 </wgt>
<wgt id='85'> +4.9534205e+02 </wgt>
<wgt id='86'> +5.1966956e+02 </wgt>
<wgt id='87'> +5.0752278e+02 </wgt>
<wgt id='88'> +5.0540240e+02 </wgt>
<wgt id='89'> +4.8685905e+02 </wgt>
<wgt id='90'> +5.0201686e+02 </wgt>
<wgt id='91'> +4.8976204e+02 </wgt>
<wgt id='92'> +4.4747939e+02 </wgt>
<wgt id='93'> +5.0813381e+02 </wgt>
<wgt id='94'> +4.7395814e+02 </wgt>
<wgt id='95'> +5.0671559e+02 </wgt>
<wgt id='96'> +5.4866382e+02 </wgt>
<wgt id='97'> +4.8076113e+02 </wgt>
<wgt id='98'> +5.1038435e+02 </wgt>
<wgt id='99'> +4.5394121e+02 </wgt>
<wgt id='100'> +4.2660871e+02 </wgt>
<wgt id='101'> +5.8669362e+02 </wgt>
<wgt id='102'> +5.5013221e+02 </wgt>
<wgt id='103'> +5.3026283e+02 </wgt>
<wgt id='104'> +5.2628488e+02 </wgt>
<wgt id='105'> +5.1540447e+02 </wgt>
<wgt id='106'> +4.5560527e+02 </wgt>
<wgt id='107'> +4.6906363e+02 </wgt>
<wgt id='108'> +4.4079123e+02 </wgt>
<wgt id='109'> +4.7559405e+02 </wgt>
<wgt id='110'> +4.8415034e+02 </wgt>
<wgt id='111'> +4.8723678e+02 </wgt>
<wgt id='112'> +4.8892895e+02 </wgt>
<wgt id='113'> +4.7915658e+02 </wgt>
<wgt id='114'> +4.9534076e+02 </wgt>
<wgt id='115'> +4.6509291e+02 </wgt>
<wgt id='116'> +5.4637945e+02 </wgt>
<wgt id='117'> +4.9420814e+02 </wgt>
<wgt id='118'> +5.3810926e+02 </wgt>
<wgt id='119'> +5.0841399e+02 </wgt>
<wgt id='120'> +4.9664446e+02 </wgt>
<wgt id='121'> +4.9297895e+02 </wgt>
<wgt id='122'> +4.9591359e+02 </wgt>
<wgt id='123'> +5.0425857e+02 </wgt>
<wgt id='124'> +5.7937247e+02 </wgt>
<wgt id='125'> +6.0215278e+02 </wgt>
<wgt id='126'> +5.1695360e+02 </wgt>
<wgt id='127'> +5.1015859e+02 </wgt>
<wgt id='128'> +4.6149512e+02 </wgt>
<wgt id='129'> +5.5537184e+02 </wgt>
<wgt id='130'> +4.9718761e+02 </wgt>
<wgt id='131'> +5.0481455e+02 </wgt>
<wgt id='132'> +5.4473914e+02 </wgt>
<wgt id='133'> +5.3867429e+02 </wgt>
<wgt id='134'> +5.0353406e+02 </wgt>
<wgt id='135'> +5.0131841e+02 </wgt>
<wgt id='136'> +5.5269908e+02 </wgt>
<wgt id='137'> +5.0059812e+02 </wgt>
<wgt id='138'> +4.9906283e+02 </wgt>
<wgt id='139'> +5.2404059e+02 </wgt>
<wgt id='140'> +5.0660272e+02 </wgt>
<wgt id='141'> +5.3662832e+02 </wgt>
<wgt id='142'> +4.2510016e+02 </wgt>
<wgt id='143'> +5.1853659e+02 </wgt>
<wgt id='144'> +4.7436049e+02 </wgt>
<wgt id='145'> +4.8746566e+02 </wgt>
</rwgt>
</event>
<event>
 4      1 +5.0481800e+02 2.23646200e+02 7.54677100e-03 1.13119300e-01
       -2 -1    0    0    0  501 -0.0000000000e+00 +0.0000000000e+00 +3.6578285404e+01 3.6578285404e+01 0.0000000000e+00 0.0000e+00 -1.0000e+00
        2 -1    0    0  502    0 +0.0000000000e+00 -0.0000000000e+00 -1.4147242102e+03 1.4147242102e+03 0.0000000000e+00 0.0000e+00 1.0000e+00
        6  1    1    2  502    0 -9.8642112330e+01 -1.0177602220e+02 -8.2177384940e+02 8.5166301116e+02 1.7300000000e+02 0.0000e+00 -1.0000e+00
       -6  1    1    2    0  501 +9.8642112330e+01 +1.0177602220e+02 -5.5637207535e+02 5.9963948440e+02 1.7300000000e+02 0.0000e+00 -1.0000e+00
<mgrwt>
<rscale>  2 0.22364621E+03</rscale>
<asrwt>0</asrwt>
<pdfrwt beam="2">  1        2 0.21764986E+00 0.22364621E+03</pdfrwt>
<pdfrwt beam="1">  1       -2 0.56274291E-02 0.22364621E+03</pdfrwt>
<totfact> 0.24777172E+03</totfact>
</mgrwt>
<rwgt>
<wgt id='1'> +6.1150219e+02 </wgt>
<wgt id='2'> +5.6527787e+02 </wgt>
<wgt id='3'> +5.0481800e+02 </wgt>
<wgt id='4'> +6.1150219e+02 </wgt>
<wgt id='5'> +5.0267304e+02 </wgt>
<wgt id='6'> +6.1444496e+02 </wgt>
<wgt id='7'> +5.6656950e+02 </wgt>
<wgt id='8'> +5.0416094e+02 </wgt>
<wgt id='9'> +6.1444497e+02 </wgt>
<wgt id='10'> +5.0195235e+02 </wgt>
<wgt id='11'> +6.1364521e+02 </wgt>
<wgt id='12'> +5.6470898e+02 </wgt>
<wgt id='13'> +5.0114507e+02 </wgt>
<wgt id='14'> +6.1364522e+02 </wgt>
<wgt id='15'> +4.9890014e+02 </wgt>
<wgt id='16'> +5.0240026e+02 </wgt>
<wgt id='17'> +4.7094274e+02 </wgt>
<wgt id='18'> +4.2636258e+02 </wgt>
<wgt id='19'> +5.0240027e+02 </wgt>
<wgt id='20'> +4.2468843e+02 </wgt>
<wgt id='21'> +4.7201882e+02 </wgt>
<wgt id='22'> +4.2580763e+02 </wgt>
<wgt id='23'> +5.0481800e+02 </wgt>
<wgt id='24'> +4.2407955e+02 </wgt>
<wgt id='25'> +5.0416094e+02 </wgt>
<wgt id='26'> +4.7046878e+02 </wgt>
<wgt id='27'> +4.2326046e+02 </wgt>
<wgt id='28'> +5.0416094e+02 </wgt>
<wgt id='29'> +4.2150085e+02 </wgt>
<wgt id='30'> +4.2432058e+02 </wgt>
<wgt id='31'> +3.9987976e+02 </wgt>
<wgt id='32'> +3.6485719e+02 </wgt>
<wgt id='33'> +4.2432059e+02 </wgt>
<wgt id='34'> +3.6353222e+02 </wgt>
<wgt id='35'> +4.2636257e+02 </wgt>
<wgt id='36'> +4.0079347e+02 </wgt>
<wgt id='37'> +3.6438230e+02 </wgt>
<wgt id='38'> +4.2636258e+02 </wgt>
<wgt id='39'> +3.6301102e+02 </wgt>
<wgt id='40'> +4.2580763e+02 </wgt>
<wgt id='41'> +3.9947732e+02 </wgt>
<wgt id='42'> +3.6220257e+02 </wgt>
<wgt id='43'> +4.2580763e+02 </wgt>
<wgt id='44'> +3.6080366e+02 </wgt>
<wgt id='45'> +5.0481800e+02 </wgt>
<wgt id='46'> +5.0802694e+02 </wgt>
<wgt id='47'> +4.8849066e+02 </wgt>
<wgt id='48'> +4.9336555e+02 </wgt>
<wgt id='49'> +4.9672281e+02 </wgt>
<wgt id='50'> +4.5593844e+02 </wgt>
<wgt id='51'> +5.0336378e+02 </wgt>
<wgt id='52'> +4.9760703e+02 </wgt>
<wgt id='53'> +5.2155620e+02 </wgt>
<wgt id='54'> +4.9563708e+02 </wgt>
<wgt id='55'> +4.8196121e+02 </wgt>
<wgt id='56'> +5.3940911e+02 </wgt>
<wgt id='57'> +4.8889397e+02 </wgt>
<wgt id='58'> +5.3185138e+02 </wgt>
<wgt id='59'> +4.6389768e+02 </wgt>
<wgt id='60'> +5.1186487e+02 </wgt>
<wgt id='61'> +5.5616939e+02 </wgt>
<wgt id='62'> +5.2050993e+02 </wgt>
<wgt id='63'> +5.0764805e+02 </wgt>
<wgt id='64'> +5.0062570e+02 </wgt>
<wgt id='65'> +5.0063350e+02 </wgt>
<wgt id='66'> +5.1374421e+02 </wgt>
<wgt id='67'> +5.1340767e+02 </wgt>
<wgt id='68'> +4.2815575e+02 </wgt>
<wgt id='69'> +4.7577132e+02 </wgt>
<wgt id='70'> +4.9426834e+02 </wgt>
<wgt id='71'> +5.1521918e+02 </wgt>
<wgt id='72'> +5.3210628e+02 </wgt>
<wgt id='73'> +5.2419223e+02 </wgt>
<wgt id='74'> +4.4973438e+02 </wgt>
<wgt id='75'> +4.7891436e+02 </wgt>
<wgt id='76'> +5.2935756e+02 </wgt>
<wgt id='77'> +5.2160425e+02 </wgt>
<wgt id='78'> +5.3864504e+02 </wgt>
<wgt id='79'> +5.0931108e+02 </wgt>
<wgt id='80'> +5.5428009e+02 </wgt>
<wgt id='81'> +5.1478245e+02 </wgt>
<wgt id='82'> +5.0454704e+02 </wgt>
<wgt id='83'> +4.9460178e+02 </wgt>
<wgt id='84'> +5.0566275e+02 </wgt>
<wgt id='85'> +5.0436829e+02 </wgt>
<wgt id='86'> +4.9638551e+02 </wgt>
<wgt id='87'> +5.1055402e+02 </wgt>
<wgt id='88'> +5.0841840e+02 </wgt>
<wgt id='89'> +5.1475713e+02 </wgt>
<wgt id='90'> +5.4031781e+02 </wgt>
<wgt id='91'> +4.7521194e+02 </wgt>
<wgt id='92'> +5.4491115e+02 </wgt>
<wgt id='93'> +4.9182478e+02 </wgt>
<wgt id='94'> +5.1150103e+02 </wgt>
<wgt id='95'> +5.0000452e+02 </wgt>
<wgt id='96'> +4.8863375e+02 </wgt>
<wgt id='97'> +5.2910515e+02 </wgt>
<wgt id='98'> +5.1401225e+02 </wgt>
<wgt id='99'> +5.3912817e+02 </wgt>
<wgt id='100'> +5.4417015e+02 </wgt>
<wgt id='101'> +4.3353444e+02 </wgt>
<wgt id='102'> +4.6918010e+02 </wgt>
<wgt id='103'> +4.8463058e+02 </wgt>
<wgt id='104'> +4.8471543e+02 </wgt>
<wgt id='105'> +5.0594009e+02 </wgt>
<wgt id='106'> +5.4830966e+02 </wgt>
<wgt id='107'> +5.0321116e+02 </wgt>
<wgt id='108'> +5.6665077e+02 </wgt>
<wgt id='109'> +5.2265173e+02 </wgt>
<wgt id='110'> +5.2730439e+02 </wgt>
<wgt id='111'> +5.3376348e+02 </wgt>
<wgt id='112'> +5.2076326e+02 </wgt>
<wgt id='113'> +5.0863554e+02 </wgt>
<wgt id='114'> +5.0684749e+02 </wgt>
<wgt id='115'> +5.3367811e+02 </wgt>
<wgt id='116'> +4.6662650e+02 </wgt>
<wgt id='117'> +5.0495797e+02 </wgt>
<wgt id='118'> +4.7475498e+02 </wgt>
<wgt id='119'> +5.0671662e+02 </wgt>
<wgt id='120'> +5.1094372e+02 </wgt>
<wgt id='121'> +5.0443109e+02 </wgt>
<wgt id='122'> +5.2294678e+02 </wgt>
<wgt id='123'> +5.4224536e+02 </wgt>
<wgt id='124'> +4.6069923e+02 </wgt>
<wgt id='125'> +4.2873747e+02 </wgt>
<wgt id='126'> +5.0403170e+02 </wgt>
<wgt id='127'> +4.9524293e+02 </wgt>
<wgt id='128'> +5.1135689e+02 </wgt>
<wgt id='129'> +4.6900576e+02 </wgt>
<wgt id='130'> +4.9774107e+02 </wgt>
<wgt id='131'> +5.0138750e+02 </wgt>
<wgt id='132'> +4.6970867e+02 </wgt>
<wgt id='133'> +4.8788298e+02 </wgt>
<wgt id='134'> +4.9650177e+02 </wgt>
<wgt id='135'> +4.9108041e+02 </wgt>
<wgt id='136'> +4.8083801e+02 </wgt>
<wgt id='137'> +5.2119330e+02 </wgt>
<wgt id='138'> +5.1627876e+02 </wgt>
<wgt id='139'> +4.9459262e+02 </wgt>
<wgt id='140'> +5.0049216e+02 </wgt>
<wgt id='141'> +4.7698609e+02 </wgt>
<wgt id='142'> +5.6215296e+02 </wgt>
<wgt id='143'> +5.1909258e+02 </wgt>
<wgt id='144'> +5.4079619e+02 </wgt>
<wgt id='145'> +5.2564710e+02 </wgt>
</rwgt>
</event>
<event>
 4      1 +5.0481800e+02 3.24573200e+02 7.54677100e-03 1.07356400e-01
       21 -1    0    0  503  502 +0.0000000000e+00 +0.0000000000e+00 +1.0476162986e+02 1.0476162986e+02 0.0000000000e+00 0.0000e+00 -1.0000e+00
       21 -1    0    0  501  503 -0.0000000000e+00 -0.0000000000e+00 -1.0062714081e+03 1.0062714081e+03 0.0000000000e+00 0.0000e+00 -1.0000e+00
        6  1    1    2  501    0 +2.7431135756e+02 -1.3115772858e+01 -4.3634947019e+02 5.4382773423e+02 1.7300000000e+02 0.0000e+00 -1.0000e+00
       -6  1    1    2    0  502 -2.7431135756e+02 +1.3115772858e+01 -4.6516030805e+02 5.6720530372e+02 1.7300000000e+02 0.0000e+00 -1.0000e+00
<mgrwt>
<rscale>  2 0.32457317E+03</rscale>
<asrwt>0</asrwt>
<pdfrwt beam="1">  1       21 0.16117174E-01 0.32457317E+03</pdfrwt>
<pdfrwt beam="2">  1       21 0.15481098E+00 0.32457317E+03</pdfrwt>
<totfact> 0.87321371E+03</totfact>
</mgrwt>
<rwgt>
<wgt id='1'> +6.6978820e+02 </wgt>
<wgt id='2'> +5.2862088e+02 </wgt>
<wgt id='3'> +5.0481800e+02 </wgt>
<wgt id='4'> +6.6978820e+02 </wgt>
<wgt id='5'> +5.0475093e+02 </wgt>
<wgt id='6'> +6.0306303e+02 </wgt>
<wgt id='7'> +4.7619196e+02 </wgt>
<wgt id='8'> +4.5499998e+02 </wgt>
<wgt id='9'> +6.0306302e+02 </wgt>
<wgt id='10'> +4.5494027e+02 </wgt>
<wgt id='11'> +5.4354969e+02 </wgt>
<wgt id='12'> +4.3044772e+02 </wgt>
<wgt id='13'> +4.1154122e+02 </wgt>
<wgt id='14'> +5.4354969e+02 </wgt>
<wgt id='15'> +4.1148793e+02 </wgt>
<wgt id='16'> +5.6067298e+02 </wgt>
<wgt id='17'> +4.4874238e+02 </wgt>
<wgt id='18'> +4.2948416e+02 </wgt>
<wgt id='19'> +5.6067297e+02 </wgt>
<wgt id='20'> +4.2942982e+02 </wgt>
<wgt id='21'> +4.0423586e+02 </wgt>
<wgt id='22'> +3.8710047e+02 </wgt>
<wgt id='23'> +5.0481800e+02 </wgt>
<wgt id='24'> +3.8705212e+02 </wgt>
<wgt id='25'> +4.5499998e+02 </wgt>
<wgt id='26'> +3.6540391e+02 </wgt>
<wgt id='27'> +3.5012704e+02 </wgt>
<wgt id='28'> +4.5499998e+02 </wgt>
<wgt id='29'> +3.5008393e+02 </wgt>
<wgt id='30'> +4.7700391e+02 </wgt>
<wgt id='31'> +3.8568836e+02 </wgt>
<wgt id='32'> +3.6983702e+02 </wgt>
<wgt id='33'> +4.7700391e+02 </wgt>
<wgt id='34'> +3.6979223e+02 </wgt>
<wgt id='35'> +4.2948416e+02 </wgt>
<wgt id='36'> +3.4743557e+02 </wgt>
<wgt id='37'> +3.3333962e+02 </wgt>
<wgt id='38'> +4.2948416e+02 </wgt>
<wgt id='39'> +3.3329979e+02 </wgt>
<wgt id='40'> +3.8710047e+02 </wgt>
<wgt id='41'> +3.1406000e+02 </wgt>
<wgt id='42'> +3.0150110e+02 </wgt>
<wgt id='43'> +3.8710047e+02 </wgt>
<wgt id='44'> +3.0146560e+02 </wgt>
<wgt id='45'> +5.0481800e+02 </wgt>
<wgt id='46'> +5.2067563e+02 </wgt>
<wgt id='47'> +5.2353657e+02 </wgt>
<wgt id='48'> +5.0755745e+02 </wgt>
<wgt id='49'> +4.7834333e+02 </wgt>
<wgt id='50'> +6.0858213e+02 </wgt>
<wgt id='51'> +4.8232791e+02 </wgt>
<wgt id='52'> +4.8735766e+02 </wgt>
<wgt id='53'> +5.0129235e+02 </wgt>
<wgt id='54'> +5.2702248e+02 </wgt>
<wgt id='55'> +5.2275626e+02 </wgt>
<wgt id='56'> +4.6851517e+02 </wgt>
<wgt id='57'> +5.2396729e+02 </wgt>
<wgt id='58'> +4.6945457e+02 </wgt>
<wgt id='59'> +5.4050632e+02 </wgt>
<wgt id='60'> +5.0430292e+02 </wgt>
<wgt id='61'> +4.4873149e+02 </wgt>
<wgt id='62'> +4.7926867e+02 </wgt>
<wgt id='63'> +5.2047280e+02 </wgt>
<wgt id='64'> +4.9891104e+02 </wgt>
<wgt id='65'> +5.1151265e+02 </wgt>
<wgt id='66'> +5.0482095e+02 </wgt>
<wgt id='67'> +5.0731344e+02 </wgt>
<wgt id='68'> +5.8880808e+02 </wgt>
<wgt id='69'> +5.3123464e+02 </wgt>
<wgt id='70'> +5.1994408e+02 </wgt>
<wgt id='71'> +4.8898107e+02 </wgt>
<wgt id='72'> +4.6852340e+02 </wgt>
<wgt id='73'> +4.6742471e+02 </wgt>
<wgt id='74'> +5.6022397e+02 </wgt>
<wgt id='75'> +5.3323820e+02 </wgt>
<wgt id='76'> +5.0974108e+02 </wgt>
<wgt id='77'> +4.8699535e+02 </wgt>
<wgt id='78'> +4.5376106e+02 </wgt>
<wgt id='79'> +5.2114544e+02 </wgt>
<wgt id='80'> +4.6655231e+02 </wgt>
<wgt id='81'> +5.0765464e+02 </wgt>
<wgt id='82'> +4.9018113e+02 </wgt>
<wgt id='83'> +5.0589255e+02 </wgt>
<wgt id='84'> +5.1904796e+02 </wgt>
<wgt id='85'> +4.8227176e+02 </wgt>
<wgt id='86'> +5.2081135e+02 </wgt>
<wgt id='87'> +5.0374327e+02 </wgt>
<wgt id='88'> +5.0086131e+02 </wgt>
<wgt id='89'> +4.6866819e+02 </wgt>
<wgt id='90'> +4.9233848e+02 </wgt>
<wgt id='91'> +4.7504345e+02 </wgt>
<wgt id='92'> +4.6154404e+02 </wgt>
<wgt id='93'> +5.0736488e+02 </wgt>
<wgt id='94'> +4.7241511e+02 </wgt>
<wgt id='95'> +5.1655418e+02 </wgt>
<wgt id='96'> +5.3690444e+02 </wgt>
<wgt id='97'> +4.7525188e+02 </wgt>
<wgt id='98'> +5.2044767e+02 </wgt>
<wgt id='99'> +4.4647432e+02 </wgt>
<wgt id='100'> +4.1853483e+02 </wgt>
<wgt id='101'> +5.8113833e+02 </wgt>
<wgt id='102'> +5.5170686e+02 </wgt>
<wgt id='103'> +5.1222757e+02 </wgt>
<wgt id='104'> +5.2935697e+02 </wgt>
<wgt id='105'> +5.1714971e+02 </wgt>
<wgt id='106'> +4.7144867e+02 </wgt>
<wgt id='107'> +4.7820964e+02 </wgt>
<wgt id='108'> +4.5597261e+02 </wgt>
<wgt id='109'> +4.8644317e+02 </wgt>
<wgt id='110'> +4.7881785e+02 </wgt>
<wgt id='111'> +4.9069269e+02 </wgt>
<wgt id='112'> +5.0277315e+02 </wgt>
<wgt id='113'> +4.9710581e+02 </wgt>
<wgt id='114'> +5.0739717e+02 </wgt>
<wgt id='115'> +4.6866153e+02 </wgt>
<wgt id='116'> +5.4481954e+02 </wgt>
<wgt id='117'> +4.9510789e+02 </wgt>
<wgt id='118'> +5.2901620e+02 </wgt>
<wgt id='119'> +5.2295838e+02 </wgt>
<wgt id='120'> +5.0186138e+02 </wgt>
<wgt id='121'> +4.9652230e+02 </wgt>
<wgt id='122'> +4.9617364e+02 </wgt>
<wgt id='123'> +4.9667024e+02 </wgt>
<wgt id='124'> +5.7094374e+02 </wgt>
<wgt id='125'> +6.0538273e+02 </wgt>
<wgt id='126'> +5.0759888e+02 </wgt>
<wgt id='127'> +5.0016752e+02 </wgt>
<wgt id='128'> +4.7233906e+02 </wgt>
<wgt id='129'> +5.3980867e+02 </wgt>
<wgt id='130'> +4.9283705e+02 </wgt>
<wgt id='131'> +4.9154754e+02 </wgt>
<wgt id='132'> +5.4546756e+02 </wgt>
<wgt id='133'> +5.3937762e+02 </wgt>
<wgt id='134'> +5.1257990e+02 </wgt>
<wgt id='135'> +4.9507978e+02 </wgt>
<wgt id='136'> +5.6470396e+02 </wgt>
<wgt id='137'> +5.0874913e+02 </wgt>
<wgt id='138'> +5.0302113e+02 </wgt>
<wgt id='139'> +5.2076498e+02 </wgt>
<wgt id='140'> +5.0207557e+02 </wgt>
<wgt id='141'> +5.4620608e+02 </wgt>
<wgt id='142'> +4.0800232e+02 </wgt>
<wgt id='143'> +5.1761958e+02 </wgt>
<wgt id='144'> +4.7169036e+02 </wgt>
<wgt id='145'> +4.8111109e+02 </wgt>
</rwgt>
</event>
<event>
 4      1 +5.0481800e+02 1.97347400e+02 7.54677100e-03 1.15199700e-01
       21 -1    0    0  503  502 +0.0000000000e+00 +0.0000000000e+00 +3.0431918465e+02 3.0431918465e+02 0.0000000000e+00 0.0000e+00 -1.0000e+00
       21 -1    0    0  501  503 -0.0000000000e+00 -0.0000000000e+00 -2.2966273382e+02 2.2966273382e+02 0.0000000000e+00 0.0000e+00 -1.0000e+00
        6  1    1    2  501    0 -4.5948431776e+01 +8.3100666204e+01 -1.4032800479e+02 2.4215269570e+02 1.7300000000e+02 0.0000e+00 -1.0000e+00
       -6  1    1    2    0  502 +4.5948431776e+01 -8.3100666204e+01 +2.1498445561e+02 2.9182922277e+02 1.7300000000e+02 0.0000e+00 -1.0000e+00
<mgrwt>
<rscale>  2 0.19734736E+03</rscale>
<asrwt>0</asrwt>
<pdfrwt beam="1">  1       21 0.46818336E-01 0.19734736E+03</pdfrwt>
<pdfrwt beam="2">  1       21 0.35332728E-01 0.19734736E+03</pdfrwt>
<totfact> 0.33644751E+04</totfact>
</mgrwt>
<rwgt>
<wgt id='1'> +6.5655796e+02 </wgt>
<wgt id='2'> +5.9573129e+02 </wgt>
<wgt id='3'> +5.0481800e+02 </wgt>
<wgt id='4'> +6.5655796e+02 </wgt>
<wgt id='5'> +4.5412284e+02 </wgt>
<wgt id='6'> +6.1872500e+02 </wgt>
<wgt id='7'> +5.5733341e+02 </wgt>
<wgt id='8'> +4.6830260e+02 </wgt>
<wgt id='9'> +6.1872501e+02 </wgt>
<wgt id='10'> +4.2141158e+02 </wgt>
<wgt id='11'> +5.7397028e+02 </wgt>
<wgt id='12'> +5.1716626e+02 </wgt>
<wgt id='13'> +4.3480351e+02 </wgt>
<wgt id='14'> +5.7397028e+02 </wgt>
<wgt id='15'> +3.9147178e+02 </wgt>
<wgt id='16'> +5.3568592e+02 </wgt>
<wgt id='17'> +4.9267493e+02 </wgt>
<wgt id='18'> +4.2527762e+02 </wgt>
<wgt id='19'> +5.3568593e+02 </wgt>
<wgt id='20'> +3.8482671e+02 </wgt>
<wgt id='21'> +4.6091956e+02 </wgt>
<wgt id='22'> +3.9451568e+02 </wgt>
<wgt id='23'> +5.0481800e+02 </wgt>
<wgt id='24'> +3.5710697e+02 </wgt>
<wgt id='25'> +4.6830260e+02 </wgt>
<wgt id='26'> +4.2770097e+02 </wgt>
<wgt id='27'> +3.6629479e+02 </wgt>
<wgt id='28'> +4.6830260e+02 </wgt>
<wgt id='29'> +3.3173578e+02 </wgt>
<wgt id='30'> +4.5128192e+02 </wgt>
<wgt id='31'> +4.1715256e+02 </wgt>
<wgt id='32'> +3.6312040e+02 </wgt>
<wgt id='33'> +4.5128192e+02 </wgt>
<wgt id='34'> +3.3026210e+02 </wgt>
<wgt id='35'> +4.2527762e+02 </wgt>
<wgt id='36'> +3.9026498e+02 </wgt>
<wgt id='37'> +3.3685452e+02 </wgt>
<wgt id='38'> +4.2527762e+02 </wgt>
<wgt id='39'> +3.0647275e+02 </wgt>
<wgt id='40'> +3.9451568e+02 </wgt>
<wgt id='41'> +3.6213849e+02 </wgt>
<wgt id='42'> +3.1275831e+02 </wgt>
<wgt id='43'> +3.9451568e+02 </wgt>
<wgt id='44'> +2.8469894e+02 </wgt>
<wgt id='45'> +5.0481800e+02 </wgt>
<wgt id='46'> +5.0816301e+02 </wgt>
<wgt id='47'> +5.2559765e+02 </wgt>
<wgt id='48'> +5.0872719e+02 </wgt>
<wgt id='49'> +5.0396730e+02 </wgt>
<wgt id='50'> +6.0135979e+02 </wgt>
<wgt id='51'> +4.9513599e+02 </wgt>
<wgt id='52'> +5.0278271e+02 </wgt>
<wgt id='53'> +5.0862428e+02 </wgt>
<wgt id='54'> +5.0757728e+02 </wgt>
<wgt id='55'> +4.4766168e+02 </wgt>
<wgt id='56'> +4.6525200e+02 </wgt>
<wgt id='57'> +4.8994863e+02 </wgt>
<wgt id='58'> +5.0532693e+02 </wgt>
<wgt id='59'> +4.9976192e+02 </wgt>
<wgt id='60'> +4.8635391e+02 </wgt>
<wgt id='61'> +4.8649290e+02 </wgt>
<wgt id='62'> +4.9911153e+02 </wgt>
<wgt id='63'> +5.0518004e+02 </wgt>
<wgt id='64'> +4.9687148e+02 </wgt>
<wgt id='65'> +5.9901337e+02 </wgt>
<wgt id='66'> +4.9316204e+02 </wgt>
<wgt id='67'> +5.0943563e+02 </wgt>
<wgt id='68'> +5.4509640e+02 </wgt>
<wgt id='69'> +4.9648096e+02 </wgt>
<wgt id='70'> +4.9526393e+02 </wgt>
<wgt id='71'> +5.1449453e+02 </wgt>
<wgt id='72'> +4.8337567e+02 </wgt>
<wgt id='73'> +4.9667934e+02 </wgt>
<wgt id='74'> +5.2364643e+02 </wgt>
<wgt id='75'> +5.1733121e+02 </wgt>
<wgt id='76'> +4.8808584e+02 </wgt>
<wgt id='77'> +4.8785209e+02 </wgt>
<wgt id='78'> +5.0210992e+02 </wgt>
<wgt id='79'> +4.8527688e+02 </wgt>
<wgt id='80'> +4.9937242e+02 </wgt>
<wgt id='81'> +4.9365156e+02 </wgt>
<wgt id='82'> +5.1764607e+02 </wgt>
<wgt id='83'> +5.1796962e+02 </wgt>
<wgt id='84'> +5.5852571e+02 </wgt>
<wgt id='85'> +5.3311194e+02 </wgt>
<wgt id='86'> +5.0367214e+02 </wgt>
<wgt id='87'> +5.0609967e+02 </wgt>
<wgt id='88'> +5.1538372e+02 </wgt>
<wgt id='89'> +5.1936340e+02 </wgt>
<wgt id='90'> +5.1170314e+02 </wgt>
<wgt id='91'> +5.3781979e+02 </wgt>
<wgt id='92'> +4.5631036e+02 </wgt>
<wgt id='93'> +4.9788159e+02 </wgt>
<wgt id='94'> +4.9978255e+02 </wgt>
<wgt id='95'> +4.8105817e+02 </wgt>
<wgt id='96'> +5.5213811e+02 </wgt>
<wgt id='97'> +5.1120187e+02 </wgt>
<wgt id='98'> +4.8111081e+02 </wgt>
<wgt id='99'> +4.8895707e+02 </wgt>
<wgt id='100'> +4.9581347e+02 </wgt>
<wgt id='101'> +5.3720454e+02 </wgt>
<wgt id='102'> +4.9502844e+02 </wgt>
<wgt id='103'> +5.5290566e+02 </wgt>
<wgt id='104'> +5.0582763e+02 </wgt>
<wgt id='105'> +5.2243070e+02 </wgt>
<wgt id='106'> +4.5716557e+02 </wgt>
<wgt id='107'> +4.9281418e+02 </wgt>
<wgt id='108'> +4.4537165e+02 </wgt>
<wgt id='109'> +4.6962153e+02 </wgt>
<wgt id='110'> +5.0474319e+02 </wgt>
<wgt id='111'> +4.8898451e+02 </wgt>
<wgt id='112'> +4.7788185e+02 </wgt>
<wgt id='113'> +4.5916758e+02 </wgt>
<wgt id='114'> +4.9756793e+02 </wgt>
<wgt id='115'> +5.0064341e+02 </wgt>
<wgt id='116'> +5.0930046e+02 </wgt>
<wgt id='117'> +5.1009831e+02 </wgt>
<wgt id='118'> +5.2242293e+02 </wgt>
<wgt id='119'> +4.8231454e+02 </wgt>
<wgt id='120'> +4.9953746e+02 </wgt>
<wgt id='121'> +4.8798194e+02 </wgt>
<wgt id='122'> +4.9722483e+02 </wgt>
<wgt id='123'> +5.1324560e+02 </wgt>
<wgt id='124'> +5.4532372e+02 </wgt>
<wgt id='125'> +5.4566396e+02 </wgt>
<wgt id='126'> +5.2741256e+02 </wgt>
<wgt id='127'> +5.2230692e+02 </wgt>
<wgt id='128'> +4.6514034e+02 </wgt>
<wgt id='129'> +5.7542757e+02 </wgt>
<wgt id='130'> +5.1074971e+02 </wgt>
<wgt id='131'> +5.4207644e+02 </wgt>
<wgt id='132'> +5.0141140e+02 </wgt>
<wgt id='133'> +5.0455516e+02 </wgt>
<wgt id='134'> +4.7398493e+02 </wgt>
<wgt id='135'> +5.1845915e+02 </wgt>
<wgt id='136'> +4.8449263e+02 </wgt>
<wgt id='137'> +4.7602767e+02 </wgt>
<wgt id='138'> +4.6232902e+02 </wgt>
<wgt id='139'> +5.1666818e+02 </wgt>
<wgt id='140'> +5.3589763e+02 </wgt>
<wgt id='141'> +5.0489214e+02 </wgt>
<wgt id='142'> +5.0498421e+02 </wgt>
<wgt id='143'> +5.0149897e+02 </wgt>
<wgt id='144'> +5.0185051e+02 </wgt>
<wgt id='145'> +5.0629777e+02 </wgt>
</rwgt>
</event>
<event>
 4      1 +5.0481800e+02 1.91657200e+02 7.54677100e-03 1.15697500e-01
       21 -1    0    0  503  502 +0.0000000000e+00 +0.0000000000e+00 +7.5835882483e+02 7.5835882483e+02 0.0000000000e+00 0.0000e+00 1.0000e+00
       21 -1    0    0  501  503 -0.0000000000e+00 -0.0000000000e+00 -5.2200471600e+01 5.2200471600e+01 0.0000000000e+00 0.0000e+00 1.0000e+00
        6  1    1    2  501    0 +7.1404038221e+01 -4.1291048950e+01 +2.4425572937e+02 3.1047278259e+02 1.7300000000e+02 0.0000e+00 1.0000e+00
       -6  1    1    2    0  502 -7.1404038221e+01 +4.1291048950e+01 +4.6190262386e+02 5.0008651384e+02 1.7300000000e+02 0.0000e+00 1.0000e+00
<mgrwt>
<rscale>  2 0.19165721E+03</rscale>
<asrwt>0</asrwt>
<pdfrwt beam="1">  1       21 0.11667058E+00 0.19165721E+03</pdfrwt>
<pdfrwt beam="2">  1       21 0.80308424E-02 0.19165721E+03</pdfrwt>
<totfact> 0.67499575E+04</totfact>
</mgrwt>
<rwgt>
<wgt id='1'> +6.5254930e+02 </wgt>
<wgt id='2'> +6.5835560e+02 </wgt>
<wgt id='3'> +5.0481800e+02 </wgt>
<wgt id='4'> +6.5254929e+02 </wgt>
<wgt id='5'> +4.9808656e+02 </wgt>
<wgt id='6'> +6.1962649e+02 </wgt>
<wgt id='7'> +6.2551998e+02 </wgt>
<wgt id='8'> +4.7082572e+02 </wgt>
<wgt id='9'> +6.1962649e+02 </wgt>
<wgt id='10'> +4.6444144e+02 </wgt>
<wgt id='11'> +5.7790350e+02 </wgt>
<wgt id='12'> +5.8351722e+02 </wgt>
<wgt id='13'> +4.3892997e+02 </wgt>
<wgt id='14'> +5.7790350e+02 </wgt>
<wgt id='15'> +4.3298239e+02 </wgt>
<wgt id='16'> +5.3164065e+02 </wgt>
<wgt id='17'> +5.3578665e+02 </wgt>
<wgt id='18'> +4.2494568e+02 </wgt>
<wgt id='19'> +5.3164065e+02 </wgt>
<wgt id='20'> +4.1969038e+02 </wgt>
<wgt id='21'> +5.0906418e+02 </wgt>
<wgt id='22'> +3.9633166e+02 </wgt>
<wgt id='23'> +5.0481800e+02 </wgt>
<wgt id='24'> +3.9134082e+02 </wgt>
<wgt id='25'> +4.7082572e+02 </wgt>
<wgt id='26'> +4.7488126e+02 </wgt>
<wgt id='27'> +3.6948246e+02 </wgt>
<wgt id='28'> +4.7082572e+02 </wgt>
<wgt id='29'> +3.6483326e+02 </wgt>
<wgt id='30'> +4.4752445e+02 </wgt>
<wgt id='31'> +4.5071287e+02 </wgt>
<wgt id='32'> +3.6264491e+02 </wgt>
<wgt id='33'> +4.4752445e+02 </wgt>
<wgt id='34'> +3.5840258e+02 </wgt>
<wgt id='35'> +4.2494568e+02 </wgt>
<wgt id='36'> +4.2823347e+02 </wgt>
<wgt id='37'> +3.3822596e+02 </wgt>
<wgt id='38'> +4.2494568e+02 </wgt>
<wgt id='39'> +3.3419294e+02 </wgt>
<wgt id='40'> +3.9633166e+02 </wgt>
<wgt id='41'> +3.9947822e+02 </wgt>
<wgt id='42'> +3.1531309e+02 </wgt>
<wgt id='43'> +3.9633166e+02 </wgt>
<wgt id='44'> +3.1155630e+02 </wgt>
<wgt id='45'> +5.0481800e+02 </wgt>
<wgt id='46'> +5.1603118e+02 </wgt>
<wgt id='47'> +5.1655678e+02 </wgt>
<wgt id='48'> +5.0634379e+02 </wgt>
<wgt id='49'> +4.9210035e+02 </wgt>
<wgt id='50'> +5.9075815e+02 </wgt>
<wgt id='51'> +4.8986575e+02 </wgt>
<wgt id='52'> +5.0108692e+02 </wgt>
<wgt id='53'> +4.9748637e+02 </wgt>
<wgt id='54'> +5.1714411e+02 </wgt>
<wgt id='55'> +4.9645478e+02 </wgt>
<wgt id='56'> +4.6636550e+02 </wgt>
<wgt id='57'> +5.1446474e+02 </wgt>
<wgt id='58'> +4.9005343e+02 </wgt>
<wgt id='59'> +5.3040045e+02 </wgt>
<wgt id='60'> +5.0827833e+02 </wgt>
<wgt id='61'> +4.4060440e+02 </wgt>
<wgt id='62'> +4.9097169e+02 </wgt>
<wgt id='63'> +5.1090105e+02 </wgt>
<wgt id='64'> +4.9873339e+02 </wgt>
<wgt id='65'> +5.3696054e+02 </wgt>
<wgt id='66'> +4.9819433e+02 </wgt>
<wgt id='67'> +5.0706663e+02 </wgt>
<wgt id='68'> +5.6085384e+02 </wgt>
<wgt id='69'> +5.0700392e+02 </wgt>
<wgt id='70'> +5.0417055e+02 </wgt>
<wgt id='71'> +5.0361126e+02 </wgt>
<wgt id='72'> +4.8788169e+02 </wgt>
<wgt id='73'> +4.8476107e+02 </wgt>
<wgt id='74'> +5.3810672e+02 </wgt>
<wgt id='75'> +5.1795572e+02 </wgt>
<wgt id='76'> +5.0402113e+02 </wgt>
<wgt id='77'> +4.9467155e+02 </wgt>
<wgt id='78'> +4.7506357e+02 </wgt>
<wgt id='79'> +5.0636630e+02 </wgt>
<wgt id='80'> +4.8518886e+02 </wgt>
<wgt id='81'> +4.9973126e+02 </wgt>
<wgt id='82'> +4.9228175e+02 </wgt>
<wgt id='83'> +5.0535023e+02 </wgt>
<wgt id='84'> +5.2905753e+02 </wgt>
<wgt id='85'> +5.0270231e+02 </wgt>
<wgt id='86'> +5.0917498e+02 </wgt>
<wgt id='87'> +5.0726422e+02 </wgt>
<wgt id='88'> +5.0142810e+02 </wgt>
<wgt id='89'> +4.9974258e+02 </wgt>
<wgt id='90'> +5.0968252e+02 </wgt>
<wgt id='91'> +5.0298878e+02 </wgt>
<wgt id='92'> +4.6833611e+02 </wgt>
<wgt id='93'> +5.0371976e+02 </wgt>
<wgt id='94'> +4.8689442e+02 </wgt>
<wgt id='95'> +5.0815687e+02 </wgt>
<wgt id='96'> +5.3221845e+02 </wgt>
<wgt id='97'> +4.9237219e+02 </wgt>
<wgt id='98'> +5.0164898e+02 </wgt>
<wgt id='99'> +4.7179327e+02 </wgt>
<wgt id='100'> +4.5891034e+02 </wgt>
<wgt id='101'> +5.6038558e+02 </wgt>
<wgt id='102'> +5.2718112e+02 </wgt>
<wgt id='103'> +5.3123791e+02 </wgt>
<wgt id='104'> +5.1210007e+02 </wgt>
<wgt id='105'> +5.2110041e+02 </wgt>
<wgt id='106'> +4.6965538e+02 </wgt>
<wgt id='107'> +4.8287302e+02 </wgt>
<wgt id='108'> +4.5421345e+02 </wgt>
<wgt id='109'> +4.8354305e+02 </wgt>
<wgt id='110'> +4.9650986e+02 </wgt>
<wgt id='111'> +4.9310015e+02 </wgt>
<wgt id='112'> +4.8795481e+02 </wgt>
<wgt id='113'> +4.8015229e+02 </wgt>
<wgt id='114'> +5.0111957e+02 </wgt>
<wgt id='115'> +4.7431966e+02 </wgt>
<wgt id='116'> +5.2552684e+02 </wgt>
<wgt id='117'> +4.9651574e+02 </wgt>
<wgt id='118'> +5.2692021e+02 </wgt>
<wgt id='119'> +5.0464918e+02 </wgt>
<wgt id='120'> +4.9565338e+02 </wgt>
<wgt id='121'> +5.0047008e+02 </wgt>
<wgt id='122'> +4.9977397e+02 </wgt>
<wgt id='123'> +5.0269604e+02 </wgt>
<wgt id='124'> +5.5782933e+02 </wgt>
<wgt id='125'> +5.7044929e+02 </wgt>
<wgt id='126'> +5.1382030e+02 </wgt>
<wgt id='127'> +5.1133584e+02 </wgt>
<wgt id='128'> +4.6312174e+02 </wgt>
<wgt id='129'> +5.5376418e+02 </wgt>
<wgt id='130'> +4.9361298e+02 </wgt>
<wgt id='131'> +5.1400569e+02 </wgt>
<wgt id='132'> +5.3742799e+02 </wgt>
<wgt id='133'> +5.2377850e+02 </wgt>
<wgt id='134'> +5.0013408e+02 </wgt>
<wgt id='135'> +5.0633829e+02 </wgt>
<wgt id='136'> +5.3754004e+02 </wgt>
<wgt id='137'> +4.8959200e+02 </wgt>
<wgt id='138'> +4.8005601e+02 </wgt>
<wgt id='139'> +5.1985963e+02 </wgt>
<wgt id='140'> +5.1275620e+02 </wgt>
<wgt id='141'> +5.2033102e+02 </wgt>
<wgt id='142'> +4.5929413e+02 </wgt>
<wgt id='143'> +5.1766630e+02 </wgt>
<wgt id='144'> +4.9048492e+02 </wgt>
<wgt id='145'> +4.9438479e+02 </wgt>
</rwgt>
</event>
<event>
 4      1 +5.0481800e+02 2.00367600e+02 7.54677100e-03 1.14942900e-01
        2 -1    0    0  502    0 +0.0000000000e+00 +0.0000000000e+00 +4.2318530434e+03 4.2318530434e+03 0.0000000000e+00 0.0000e+00 -1.0000e+00
       -2 -1    0    0    0  501 -0.0000000000e+00 -0.0000000000e+00 -1.2567465510e+01 1.2567465510e+01 0.0000000000e+00 0.0000e+00 1.0000e+00
        6  1    1    2  502    0 -5.5289484997e+01 +8.4624114579e+01 +1.0589403008e+03 1.0777298960e+03 1.7300000000e+02 0.0000e+00 1.0000e+00
       -6  1    1    2    0  501 +5.5289484997e+01 -8.4624114579e+01 +3.1603452770e+03 3.1666906129e+03 1.7300000000e+02 0.0000e+00 -1.0000e+00
<mgrwt>
<rscale>  2 0.20036758E+03</rscale>
<asrwt>0</asrwt>
<pdfrwt beam="1">  1        2 0.65105317E+00 0.20036758E+03</pdfrwt>
<pdfrwt beam="2">  1       -2 0.19334596E-02 0.20036758E+03</pdfrwt>
<totfact> 0.24466053E+02</totfact>
</mgrwt>
<rwgt>
<wgt id='1'> +6.6202659e+02 </wgt>
<wgt id='2'> +6.5760851e+02 </wgt>
<wgt id='3'> +5.0481800e+02 </wgt>
<wgt id='4'> +6.6202658e+02 </wgt>
<wgt id='5'> +4.8034294e+02 </wgt>
<wgt id='6'> +6.1822877e+02 </wgt>
<wgt id='7'> +6.1410148e+02 </wgt>
<wgt id='8'> +4.7125887e+02 </wgt>
<wgt id='9'> +6.1822877e+02 </wgt>
<wgt id='10'> +4.4837326e+02 </wgt>
<wgt id='11'> +5.7713036e+02 </wgt>
<wgt id='12'> +5.7327067e+02 </wgt>
<wgt id='13'> +4.3988067e+02 </wgt>
<wgt id='14'> +5.7713035e+02 </wgt>
<wgt id='15'> +4.1853988e+02 </wgt>
<wgt id='16'> +5.4058134e+02 </wgt>
<wgt id='17'> +5.3744919e+02 </wgt>
<wgt id='18'> +4.2543280e+02 </wgt>
<wgt id='19'> +5.4058134e+02 </wgt>
<wgt id='20'> +4.0593156e+02 </wgt>
<wgt id='21'> +5.0189184e+02 </wgt>
<wgt id='22'> +3.9715101e+02 </wgt>
<wgt id='23'> +5.0481800e+02 </wgt>
<wgt id='24'> +3.7891440e+02 </wgt>
<wgt id='25'> +4.7125887e+02 </wgt>
<wgt id='26'> +4.6852171e+02 </wgt>
<wgt id='27'> +3.7070719e+02 </wgt>
<wgt id='28'> +4.7125887e+02 </wgt>
<wgt id='29'> +3.5370260e+02 </wgt>
<wgt id='30'> +4.5557217e+02 </wgt>
<wgt id='31'> +4.5309738e+02 </wgt>
<wgt id='32'> +3.6335252e+02 </wgt>
<wgt id='33'> +4.5557217e+02 </wgt>
<wgt id='34'> +3.4755904e+02 </wgt>
<wgt id='35'> +4.2543280e+02 </wgt>
<wgt id='36'> +4.2312070e+02 </wgt>
<wgt id='37'> +3.3919769e+02 </wgt>
<wgt id='38'> +4.2543280e+02 </wgt>
<wgt id='39'> +3.2442692e+02 </wgt>
<wgt id='40'> +3.9715101e+02 </wgt>
<wgt id='41'> +3.9498795e+02 </wgt>
<wgt id='42'> +3.1661262e+02 </wgt>
<wgt id='43'> +3.9715101e+02 </wgt>
<wgt id='44'> +3.0284055e+02 </wgt>
<wgt id='45'> +5.0481800e+02 </wgt>
<wgt id='46'> +4.8680592e+02 </wgt>
<wgt id='47'> +5.0550541e+02 </wgt>
<wgt id='48'> +4.8768854e+02 </wgt>
<wgt id='49'> +4.9477993e+02 </wgt>
<wgt id='50'> +4.3357951e+02 </wgt>
<wgt id='51'> +4.9314392e+02 </wgt>
<wgt id='52'> +4.6604052e+02 </wgt>
<wgt id='53'> +5.4295961e+02 </wgt>
<wgt id='54'> +5.3813441e+02 </wgt>
<wgt id='55'> +5.3623989e+02 </wgt>
<wgt id='56'> +4.4886515e+02 </wgt>
<wgt id='57'> +4.5960190e+02 </wgt>
<wgt id='58'> +5.2717176e+02 </wgt>
<wgt id='59'> +5.2007326e+02 </wgt>
<wgt id='60'> +4.9626612e+02 </wgt>
<wgt id='61'> +5.4261733e+02 </wgt>
<wgt id='62'> +4.8397679e+02 </wgt>
<wgt id='63'> +4.8261256e+02 </wgt>
<wgt id='64'> +5.1914656e+02 </wgt>
<wgt id='65'> +4.4880167e+02 </wgt>
<wgt id='66'> +4.9217543e+02 </wgt>
<wgt id='67'> +5.0602973e+02 </wgt>
<wgt id='68'> +5.0864109e+02 </wgt>
<wgt id='69'> +5.7423062e+02 </wgt>
<wgt id='70'> +5.4843687e+02 </wgt>
<wgt id='71'> +5.2019721e+02 </wgt>
<wgt id='72'> +5.8257447e+02 </wgt>
<wgt id='73'> +5.3091655e+02 </wgt>
<wgt id='74'> +4.9385175e+02 </wgt>
<wgt id='75'> +4.8156938e+02 </wgt>
<wgt id='76'> +5.5558135e+02 </wgt>
<wgt id='77'> +4.1841477e+02 </wgt>
<wgt id='78'> +5.1178277e+02 </wgt>
<wgt id='79'> +4.9929951e+02 </wgt>
<wgt id='80'> +4.9045423e+02 </wgt>
<wgt id='81'> +4.9170777e+02 </wgt>
<wgt id='82'> +5.7019858e+02 </wgt>
<wgt id='83'> +5.1123708e+02 </wgt>
<wgt id='84'> +4.2406460e+02 </wgt>
<wgt id='85'> +4.8376002e+02 </wgt>
<wgt id='86'> +5.1257329e+02 </wgt>
<wgt id='87'> +5.2130880e+02 </wgt>
<wgt id='88'> +5.1227458e+02 </wgt>
<wgt id='89'> +5.1473641e+02 </wgt>
<wgt id='90'> +5.0528821e+02 </wgt>
<wgt id='91'> +4.5691861e+02 </wgt>
<wgt id='92'> +5.0315645e+02 </wgt>
<wgt id='93'> +4.7585395e+02 </wgt>
<wgt id='94'> +5.4085783e+02 </wgt>
<wgt id='95'> +4.4185650e+02 </wgt>
<wgt id='96'> +4.8429538e+02 </wgt>
<wgt id='97'> +5.1500321e+02 </wgt>
<wgt id='98'> +5.1016881e+02 </wgt>
<wgt id='99'> +5.3590282e+02 </wgt>
<wgt id='100'> +4.6293499e+02 </wgt>
<wgt id='101'> +5.3015516e+02 </wgt>
<wgt id='102'> +5.2417352e+02 </wgt>
<wgt id='103'> +5.0047459e+02 </wgt>
<wgt id='104'> +5.6224700e+02 </wgt>
<wgt id='105'> +4.9909104e+02 </wgt>
<wgt id='106'> +5.4825834e+02 </wgt>
<wgt id='107'> +5.1521847e+02 </wgt>
<wgt id='108'> +4.7558902e+02 </wgt>
<wgt id='109'> +4.9895308e+02 </wgt>
<wgt id='110'> +5.3167461e+02 </wgt>
<wgt id='111'> +4.9214435e+02 </wgt>
<wgt id='112'> +4.7565798e+02 </wgt>
<wgt id='113'> +5.5394109e+02 </wgt>
<wgt id='114'> +5.1037937e+02 </wgt>
<wgt id='115'> +4.7993103e+02 </wgt>
<wgt id='116'> +4.6872571e+02 </wgt>
<wgt id='117'> +4.5649206e+02 </wgt>
<wgt id='118'> +5.2880457e+02 </wgt>
<wgt id='119'> +5.3797424e+02 </wgt>
<wgt id='120'> +4.6833048e+02 </wgt>
<wgt id='121'> +5.7656458e+02 </wgt>
<wgt id='122'> +4.6137474e+02 </wgt>
<wgt id='123'> +5.0624792e+02 </wgt>
<wgt id='124'> +4.0242164e+02 </wgt>
<wgt id='125'> +3.8848517e+02 </wgt>
<wgt id='126'> +5.1197216e+02 </wgt>
<wgt id='127'> +5.1281514e+02 </wgt>
<wgt id='128'> +5.1377942e+02 </wgt>
<wgt id='129'> +5.1652969e+02 </wgt>
<wgt id='130'> +5.1272145e+02 </wgt>
<wgt id='131'> +4.8671806e+02 </wgt>
<wgt id='132'> +5.5133121e+02 </wgt>
<wgt id='133'> +4.7354052e+02 </wgt>
<wgt id='134'> +4.9836111e+02 </wgt>
<wgt id='135'> +5.1619686e+02 </wgt>
<wgt id='136'> +6.0603347e+02 </wgt>
<wgt id='137'> +5.8213476e+02 </wgt>
<wgt id='138'> +5.2923453e+02 </wgt>
<wgt id='139'> +5.0329259e+02 </wgt>
<wgt id='140'> +5.1659143e+02 </wgt>
<wgt id='141'> +4.9706195e+02 </wgt>
<wgt id='142'> +5.2911026e+02 </wgt>
<wgt id='143'> +5.0206208e+02 </wgt>
<wgt id='144'> +5.0749675e+02 </wgt>
<wgt id='145'> +5.1897350e+02 </wgt>
</rwgt>
</event>
<event>
 4      1 +5.0481800e+02 2.51824100e+02 7.54677100e-03 1.11215700e-01
       21 -1    0    0  503  502 +0.0000000000e+00 +0.0000000000e+00 +1.2432612242e+02 1.2432612242e+02 0.0000000000e+00 0.0000e+00 -1.0000e+00
       21 -1    0    0  501  503 -0.0000000000e+00 -0.0000000000e+00 -7.1057581961e+02 7.1057581961e+02 0.0000000000e+00 0.0000e+00 -1.0000e+00
        6  1    1    2  501    0 -4.0874708949e+01 -1.7836933306e+02 -5.1487342046e+02 5.7315791882e+02 1.7300000000e+02 0.0000e+00 -1.0000e+00
       -6  1    1    2    0  502 +4.0874708949e+01 +1.7836933306e+02 -7.1376276734e+01 2.6174402321e+02 1.7300000000e+02 0.0000e+00 -1.0000e+00
<mgrwt>
<rscale>  2 0.25182407E+03</rscale>
<asrwt>0</asrwt>
<pdfrwt beam="1">  1       21 0.19127096E-01 0.25182407E+03</pdfrwt>
<pdfrwt beam="2">  1       21 0.10931936E+00 0.25182407E+03</pdfrwt>
<totfact> 0.16059267E+04</totfact>
</mgrwt>
<rwgt>
<wgt id='1'> +6.6328243e+02 </wgt>
<wgt id='2'> +5.3365204e+02 </wgt>
<wgt id='3'> +5.0481800e+02 </wgt>
<wgt id='4'> +6.6328243e+02 </wgt>
<wgt id='5'> +4.7411617e+02 </wgt>
<wgt id='6'> +6.1063672e+02 </wgt>
<wgt id='7'> +4.8759118e+02 </wgt>
<wgt id='8'> +4.6145851e+02 </wgt>
<wgt id='9'> +6.1063673e+02 </wgt>
<wgt id='10'> +4.3359277e+02 </wgt>
<wgt id='11'> +5.5818833e+02 </wgt>
<wgt id='12'> +4.4644645e+02 </wgt>
<wgt id='13'> +4.2272506e+02 </wgt>
<wgt id='14'> +5.5818833e+02 </wgt>
<wgt id='15'> +3.9742808e+02 </wgt>
<wgt id='16'> +5.4834060e+02 </wgt>
<wgt id='17'> +4.5049648e+02 </wgt>
<wgt id='18'> +4.2737379e+02 </wgt>
<wgt id='19'> +5.4834060e+02 </wgt>
<wgt id='20'> +4.0269074e+02 </wgt>
<wgt id='21'> +4.1161299e+02 </wgt>
<wgt id='22'> +3.9066609e+02 </wgt>
<wgt id='23'> +5.0481800e+02 </wgt>
<wgt id='24'> +3.6827217e+02 </wgt>
<wgt id='25'> +4.6145851e+02 </wgt>
<wgt id='26'> +3.7687958e+02 </wgt>
<wgt id='27'> +3.5787474e+02 </wgt>
<wgt id='28'> +4.6145851e+02 </wgt>
<wgt id='29'> +3.3755568e+02 </wgt>
<wgt id='30'> +4.6421958e+02 </wgt>
<wgt id='31'> +3.8533432e+02 </wgt>
<wgt id='32'> +3.6647482e+02 </wgt>
<wgt id='33'> +4.6421958e+02 </wgt>
<wgt id='34'> +3.4626832e+02 </wgt>
<wgt id='35'> +4.2737379e+02 </wgt>
<wgt id='36'> +3.5207514e+02 </wgt>
<wgt id='37'> +3.3499781e+02 </wgt>
<wgt id='38'> +4.2737379e+02 </wgt>
<wgt id='39'> +3.1667226e+02 </wgt>
<wgt id='40'> +3.9066609e+02 </wgt>
<wgt id='41'> +3.2236575e+02 </wgt>
<wgt id='42'> +3.0687909e+02 </wgt>
<wgt id='43'> +3.9066609e+02 </wgt>
<wgt id='44'> +2.9025957e+02 </wgt>
<wgt id='45'> +5.0481800e+02 </wgt>
<wgt id='46'> +5.1812833e+02 </wgt>
<wgt id='47'> +5.2289985e+02 </wgt>
<wgt id='48'> +5.0932004e+02 </wgt>
<wgt id='49'> +4.9273442e+02 </wgt>
<wgt id='50'> +6.1033605e+02 </wgt>
<wgt id='51'> +4.9003579e+02 </wgt>
<wgt id='52'> +5.0058175e+02 </wgt>
<wgt id='53'> +4.9874499e+02 </wgt>
<wgt id='54'> +5.1613830e+02 </wgt>
<wgt id='55'> +4.8377645e+02 </wgt>
<wgt id='56'> +4.6030593e+02 </wgt>
<wgt id='57'> +5.0913916e+02 </wgt>
<wgt id='58'> +4.8718533e+02 </wgt>
<wgt id='59'> +5.2693299e+02 </wgt>
<wgt id='60'> +5.0294221e+02 </wgt>
<wgt id='61'> +4.4117979e+02 </wgt>
<wgt id='62'> +4.9226480e+02 </wgt>
<wgt id='63'> +5.0970880e+02 </wgt>
<wgt id='64'> +4.9479646e+02 </wgt>
<wgt id='65'> +5.5562626e+02 </wgt>
<wgt id='66'> +4.9814109e+02 </wgt>
<wgt id='67'> +5.0764358e+02 </wgt>
<wgt id='68'> +5.6420717e+02 </wgt>
<wgt id='69'> +5.1219068e+02 </wgt>
<wgt id='70'> +5.0167071e+02 </wgt>
<wgt id='71'> +5.0549479e+02 </wgt>
<wgt id='72'> +4.7779440e+02 </wgt>
<wgt id='73'> +4.8296275e+02 </wgt>
<wgt id='74'> +5.4066637e+02 </wgt>
<wgt id='75'> +5.2047468e+02 </wgt>
<wgt id='76'> +4.9960883e+02 </wgt>
<wgt id='77'> +4.9348694e+02 </wgt>
<wgt id='78'> +4.7581881e+02 </wgt>
<wgt id='79'> +5.0322541e+02 </wgt>
<wgt id='80'> +4.8555807e+02 </wgt>
<wgt id='81'> +4.9670692e+02 </wgt>
<wgt id='82'> +4.9516562e+02 </wgt>
<wgt id='83'> +5.1177474e+02 </wgt>
<wgt id='84'> +5.4039077e+02 </wgt>
<wgt id='85'> +5.0862484e+02 </wgt>
<wgt id='86'> +5.1134433e+02 </wgt>
<wgt id='87'> +5.0776141e+02 </wgt>
<wgt id='88'> +5.0764303e+02 </wgt>
<wgt id='89'> +5.0305310e+02 </wgt>
<wgt id='90'> +5.0994745e+02 </wgt>
<wgt id='91'> +5.0890434e+02 </wgt>
<wgt id='92'> +4.5656228e+02 </wgt>
<wgt id='93'> +5.0397148e+02 </wgt>
<wgt id='94'> +4.8550790e+02 </wgt>
<wgt id='95'> +5.0059051e+02 </wgt>
<wgt id='96'> +5.4340090e+02 </wgt>
<wgt id='97'> +4.9372023e+02 </wgt>
<wgt id='98'> +4.9925682e+02 </wgt>
<wgt id='99'> +4.7069114e+02 </wgt>
<wgt id='100'> +4.5696540e+02 </wgt>
<wgt id='101'> +5.6497169e+02 </wgt>
<wgt id='102'> +5.2786090e+02 </wgt>
<wgt id='103'> +5.3872158e+02 </wgt>
<wgt id='104'> +5.1519680e+02 </wgt>
<wgt id='105'> +5.1905303e+02 </wgt>
<wgt id='106'> +4.5926124e+02 </wgt>
<wgt id='107'> +4.7791068e+02 </wgt>
<wgt id='108'> +4.4508098e+02 </wgt>
<wgt id='109'> +4.7577911e+02 </wgt>
<wgt id='110'> +4.9478317e+02 </wgt>
<wgt id='111'> +4.9014575e+02 </wgt>
<wgt id='112'> +4.8237571e+02 </wgt>
<wgt id='113'> +4.7188259e+02 </wgt>
<wgt id='114'> +4.9560723e+02 </wgt>
<wgt id='115'> +4.7672832e+02 </wgt>
<wgt id='116'> +5.2933049e+02 </wgt>
<wgt id='117'> +4.9842674e+02 </wgt>
<wgt id='118'> +5.3147300e+02 </wgt>
<wgt id='119'> +4.9776946e+02 </wgt>
<wgt id='120'> +4.9554337e+02 </wgt>
<wgt id='121'> +4.9437053e+02 </wgt>
<wgt id='122'> +4.9807104e+02 </wgt>
<wgt id='123'> +5.0733149e+02 </wgt>
<wgt id='124'> +5.6384356e+02 </wgt>
<wgt id='125'> +5.7429077e+02 </wgt>
<wgt id='126'> +5.1933533e+02 </wgt>
<wgt id='127'> +5.1513920e+02 </wgt>
<wgt id='128'> +4.6104874e+02 </wgt>
<wgt id='129'> +5.6161133e+02 </wgt>
<wgt id='130'> +5.0101829e+02 </wgt>
<wgt id='131'> +5.1941228e+02 </wgt>
<wgt id='132'> +5.3244691e+02 </wgt>
<wgt id='133'> +5.2433072e+02 </wgt>
<wgt id='134'> +4.9435466e+02 </wgt>
<wgt id='135'> +5.0826104e+02 </wgt>
<wgt id='136'> +5.2921305e+02 </wgt>
<wgt id='137'> +4.8950142e+02 </wgt>
<wgt id='138'> +4.8278342e+02 </wgt>
<wgt id='139'> +5.2074514e+02 </wgt>
<wgt id='140'> +5.1578846e+02 </wgt>
<wgt id='141'> +5.2078446e+02 </wgt>
<wgt id='142'> +4.6176909e+02 </wgt>
<wgt id='143'> +5.1492855e+02 </wgt>
<wgt id='144'> +4.8780050e+02 </wgt>
<wgt id='145'> +4.9673449e+02 </wgt>
</rwgt>
</event>
<event>
 4      1 +5.0481800e+02 1.98448700e+02 7.54677100e-03 1.15105400e-01
       21 -1    0    0  501  502 +0.0000000000e+00 +0.0000000000e+00 +1.7633894771e+02 1.7633894771e+02 0.0000000000e+00 0.0000e+00 1.0000e+00
       21 -1    0    0  502  503 -0.0000000000e+00 -0.0000000000e+00 -2.4009430654e+02 2.4009430654e+02 0.0000000000e+00 0.0000e+00 1.0000e+00
        6  1    1    2  501    0 +9.6958415388e+01 +7.2088997467e+00 +2.3140734283e+01 1.9979338361e+02 1.7300000000e+02 0.0000e+00 1.0000e+00
       -6  1    1    2    0  503 -9.6958415388e+01 -7.2088997467e+00 -8.6896093112e+01 2.1663987063e+02 1.7300000000e+02 0.0000e+00 1.0000e+00
<mgrwt>
<rscale>  2 0.19844874E+03</rscale>
<asrwt>0</asrwt>
<pdfrwt beam="1">  1       21 0.27129069E-01 0.19844874E+03</pdfrwt>
<pdfrwt beam="2">  1       21 0.36937585E-01 0.19844874E+03</pdfrwt>
<totfact> 0.91320081E+04</totfact>
</mgrwt>
<rwgt>
<wgt id='1'> +6.4453513e+02 </wgt>
<wgt id='2'> +5.2407995e+02 </wgt>
<wgt id='3'> +5.0481800e+02 </wgt>
<wgt id='4'> +6.4453513e+02 </wgt>
<wgt id='5'> +4.9862129e+02 </wgt>
<wgt id='6'> +6.1854512e+02 </wgt>
<wgt id='7'> +4.9463907e+02 </wgt>
<wgt id='8'> +4.7595313e+02 </wgt>
<wgt id='9'> +6.1854512e+02 </wgt>
<wgt id='10'> +4.7005245e+02 </wgt>
<wgt id='11'> +5.8317748e+02 </wgt>
<wgt id='12'> +4.6602731e+02 </wgt>
<wgt id='13'> +4.4839107e+02 </wgt>
<wgt id='14'> +5.8317748e+02 </wgt>
<wgt id='15'> +4.4282367e+02 </wgt>
<wgt id='16'> +5.2602943e+02 </wgt>
<wgt id='17'> +4.4017127e+02 </wgt>
<wgt id='18'> +4.2533575e+02 </wgt>
<wgt id='19'> +5.2602943e+02 </wgt>
<wgt id='20'> +4.2045554e+02 </wgt>
<wgt id='21'> +4.1544407e+02 </wgt>
<wgt id='22'> +4.0101558e+02 </wgt>
<wgt id='23'> +5.0481800e+02 </wgt>
<wgt id='24'> +3.9636526e+02 </wgt>
<wgt id='25'> +4.7595313e+02 </wgt>
<wgt id='26'> +3.9141324e+02 </wgt>
<wgt id='27'> +3.7779309e+02 </wgt>
<wgt id='28'> +4.7595313e+02 </wgt>
<wgt id='29'> +3.7340497e+02 </wgt>
<wgt id='30'> +4.4320750e+02 </wgt>
<wgt id='31'> +3.7513070e+02 </wgt>
<wgt id='32'> +3.6320654e+02 </wgt>
<wgt id='33'> +4.4320750e+02 </wgt>
<wgt id='34'> +3.5927353e+02 </wgt>
<wgt id='35'> +4.2533575e+02 </wgt>
<wgt id='36'> +3.5405724e+02 </wgt>
<wgt id='37'> +3.4243884e+02 </wgt>
<wgt id='38'> +4.2533575e+02 </wgt>
<wgt id='39'> +3.3868871e+02 </wgt>
<wgt id='40'> +4.0101558e+02 </wgt>
<wgt id='41'> +3.3357726e+02 </wgt>
<wgt id='42'> +3.2260849e+02 </wgt>
<wgt id='43'> +4.0101558e+02 </wgt>
<wgt id='44'> +3.1906946e+02 </wgt>
<wgt id='45'> +5.0481800e+02 </wgt>
<wgt id='46'> +5.0228977e+02 </wgt>
<wgt id='47'> +5.2170161e+02 </wgt>
<wgt id='48'> +5.0487127e+02 </wgt>
<wgt id='49'> +5.0418452e+02 </wgt>
<wgt id='50'> +5.8254678e+02 </wgt>
<wgt id='51'> +4.9516849e+02 </wgt>
<wgt id='52'> +5.0110025e+02 </wgt>
<wgt id='53'> +5.1329461e+02 </wgt>
<wgt id='54'> +5.0762108e+02 </wgt>
<wgt id='55'> +4.5059857e+02 </wgt>
<wgt id='56'> +4.7274581e+02 </wgt>
<wgt id='57'> +4.9064299e+02 </wgt>
<wgt id='58'> +5.1059382e+02 </wgt>
<wgt id='59'> +4.9368956e+02 </wgt>
<wgt id='60'> +4.8094359e+02 </wgt>
<wgt id='61'> +4.9843142e+02 </wgt>
<wgt id='62'> +4.9791741e+02 </wgt>
<wgt id='63'> +5.0528473e+02 </wgt>
<wgt id='64'> +5.0262530e+02 </wgt>
<wgt id='65'> +5.9722980e+02 </wgt>
<wgt id='66'> +4.9238115e+02 </wgt>
<wgt id='67'> +5.0943901e+02 </wgt>
<wgt id='68'> +5.3725447e+02 </wgt>
<wgt id='69'> +4.8961449e+02 </wgt>
<wgt id='70'> +4.9687400e+02 </wgt>
<wgt id='71'> +5.1450964e+02 </wgt>
<wgt id='72'> +4.9457528e+02 </wgt>
<wgt id='73'> +4.9950546e+02 </wgt>
<wgt id='74'> +5.1681837e+02 </wgt>
<wgt id='75'> +5.1549238e+02 </wgt>
<wgt id='76'> +4.9025863e+02 </wgt>
<wgt id='77'> +4.8448787e+02 </wgt>
<wgt id='78'> +5.0870656e+02 </wgt>
<wgt id='79'> +4.8223242e+02 </wgt>
<wgt id='80'> +5.0176453e+02 </wgt>
<wgt id='81'> +4.9646455e+02 </wgt>
<wgt id='82'> +5.2070640e+02 </wgt>
<wgt id='83'> +5.1445039e+02 </wgt>
<wgt id='84'> +5.5379377e+02 </wgt>
<wgt id='85'> +5.3197612e+02 </wgt>
<wgt id='86'> +5.0004049e+02 </wgt>
<wgt id='87'> +5.0380403e+02 </wgt>
<wgt id='88'> +5.1333549e+02 </wgt>
<wgt id='89'> +5.1563252e+02 </wgt>
<wgt id='90'> +5.0914831e+02 </wgt>
<wgt id='91'> +5.3855891e+02 </wgt>
<wgt id='92'> +4.6846907e+02 </wgt>
<wgt id='93'> +4.9466197e+02 </wgt>
<wgt id='94'> +5.0412365e+02 </wgt>
<wgt id='95'> +4.8455320e+02 </wgt>
<wgt id='96'> +5.4280909e+02 </wgt>
<wgt id='97'> +5.1451711e+02 </wgt>
<wgt id='98'> +4.8062219e+02 </wgt>
<wgt id='99'> +4.9149193e+02 </wgt>
<wgt id='100'> +5.0585059e+02 </wgt>
<wgt id='101'> +5.2428873e+02 </wgt>
<wgt id='102'> +4.8524037e+02 </wgt>
<wgt id='103'> +5.4619546e+02 </wgt>
<wgt id='104'> +5.0278097e+02 </wgt>
<wgt id='105'> +5.2628885e+02 </wgt>
<wgt id='106'> +4.6832017e+02 </wgt>
<wgt id='107'> +5.0318507e+02 </wgt>
<wgt id='108'> +4.5662462e+02 </wgt>
<wgt id='109'> +4.7659927e+02 </wgt>
<wgt id='110'> +5.0656905e+02 </wgt>
<wgt id='111'> +4.9304708e+02 </wgt>
<wgt id='112'> +4.8440313e+02 </wgt>
<wgt id='113'> +4.6527398e+02 </wgt>
<wgt id='114'> +5.0804927e+02 </wgt>
<wgt id='115'> +5.1164259e+02 </wgt>
<wgt id='116'> +5.0036582e+02 </wgt>
<wgt id='117'> +5.1374238e+02 </wgt>
<wgt id='118'> +5.1391001e+02 </wgt>
<wgt id='119'> +4.8612264e+02 </wgt>
<wgt id='120'> +5.0663565e+02 </wgt>
<wgt id='121'> +4.9148906e+02 </wgt>
<wgt id='122'> +4.9866641e+02 </wgt>
<wgt id='123'> +5.1077892e+02 </wgt>
<wgt id='124'> +5.3401476e+02 </wgt>
<wgt id='125'> +5.3556634e+02 </wgt>
<wgt id='126'> +5.2307555e+02 </wgt>
<wgt id='127'> +5.1854523e+02 </wgt>
<wgt id='128'> +4.7180652e+02 </wgt>
<wgt id='129'> +5.7019867e+02 </wgt>
<wgt id='130'> +5.0879268e+02 </wgt>
<wgt id='131'> +5.4134877e+02 </wgt>
<wgt id='132'> +4.9515508e+02 </wgt>
<wgt id='133'> +4.9814467e+02 </wgt>
<wgt id='134'> +4.7357658e+02 </wgt>
<wgt id='135'> +5.1794599e+02 </wgt>
<wgt id='136'> +4.8027481e+02 </wgt>
<wgt id='137'> +4.7437929e+02 </wgt>
<wgt id='138'> +4.5617916e+02 </wgt>
<wgt id='139'> +5.1281771e+02 </wgt>
<wgt id='140'> +5.3881826e+02 </wgt>
<wgt id='141'> +5.0306753e+02 </wgt>
<wgt id='142'> +5.1276371e+02 </wgt>
<wgt id='143'> +4.9813247e+02 </wgt>
<wgt id='144'> +5.0636646e+02 </wgt>
<wgt id='145'> +5.0594599e+02 </wgt>
</rwgt>
</event>
<event>
 4      1 +5.0481800e+02 2.62014500e+02 7.54677100e-03 1.10593900e-01
       21 -1    0    0  503  502 +0.0000000000e+00 +0.0000000000e+00 +1.5854230279e+02 1.5854230279e+02 0.0000000000e+00 0.0000e+00 -1.0000e+00
       21 -1    0    0  501  503 -0.0000000000e+00 -0.0000000000e+00 -5.7295650327e+02 5.7295650327e+02 0.0000000000e+00 0.0000e+00 1.0000e+00
        6  1    1    2  501    0 +1.4418141199e+02 -1.3391914453e+02 -2.6451425574e+01 2.6334633992e+02 1.7300000000e+02 0.0000e+00 -1.0000e+00
       -6  1    1    2    0  502 -1.4418141199e+02 +1.3391914453e+02 -3.8796277491e+02 4.6815246614e+02 1.7300000000e+02 0.0000e+00 1.0000e+00
<mgrwt>
<rscale>  2 0.26201454E+03</rscale>
<asrwt>0</asrwt>
<pdfrwt beam="1">  1       21 0.24391123E-01 0.26201454E+03</pdfrwt>
<pdfrwt beam="2">  1       21 0.88147155E-01 0.26201454E+03</pdfrwt>
<totfact> 0.16832427E+04</totfact>
</mgrwt>
<rwgt>
<wgt id='1'> +6.6074150e+02 </wgt>
<wgt id='2'> +5.2483231e+02 </wgt>
<wgt id='3'> +5.0481800e+02 </wgt>
<wgt id='4'> +6.6074150e+02 </wgt>
<wgt id='5'> +4.7908804e+02 </wgt>
<wgt id='6'> +6.0940039e+02 </wgt>
<wgt id='7'> +4.8099842e+02 </wgt>
<wgt id='8'> +4.6277466e+02 </wgt>
<wgt id='9'> +6.0940040e+02 </wgt>
<wgt id='10'> +4.3935165e+02 </wgt>
<wgt id='11'> +5.5864700e+02 </wgt>
<wgt id='12'> +4.4169960e+02 </wgt>
<wgt id='13'> +4.2510706e+02 </wgt>
<wgt id='14'> +5.5864700e+02 </wgt>
<wgt id='15'> +4.0377926e+02 </wgt>
<wgt id='16'> +5.4734819e+02 </wgt>
<wgt id='17'> +4.4375256e+02 </wgt>
<wgt id='18'> +4.2771043e+02 </wgt>
<wgt id='19'> +5.4734819e+02 </wgt>
<wgt id='20'> +4.0702170e+02 </wgt>
<wgt id='21'> +4.0669043e+02 </wgt>
<wgt id='22'> +3.9208893e+02 </wgt>
<wgt id='23'> +5.0481800e+02 </wgt>
<wgt id='24'> +3.7326261e+02 </wgt>
<wgt id='25'> +4.6277466e+02 </wgt>
<wgt id='26'> +3.7346277e+02 </wgt>
<wgt id='27'> +3.6017480e+02 </wgt>
<wgt id='28'> +4.6277466e+02 </wgt>
<wgt id='29'> +3.4304116e+02 </wgt>
<wgt id='30'> +4.6374441e+02 </wgt>
<wgt id='31'> +3.8010432e+02 </wgt>
<wgt id='32'> +3.6701023e+02 </wgt>
<wgt id='33'> +4.6374442e+02 </wgt>
<wgt id='34'> +3.5007303e+02 </wgt>
<wgt id='35'> +4.2771043e+02 </wgt>
<wgt id='36'> +3.4835808e+02 </wgt>
<wgt id='37'> +3.3644409e+02 </wgt>
<wgt id='38'> +4.2771043e+02 </wgt>
<wgt id='39'> +3.2103736e+02 </wgt>
<wgt id='40'> +3.9208893e+02 </wgt>
<wgt id='41'> +3.1989632e+02 </wgt>
<wgt id='42'> +3.0905918e+02 </wgt>
<wgt id='43'> +3.9208893e+02 </wgt>
<wgt id='44'> +2.9504437e+02 </wgt>
<wgt id='45'> +5.0481800e+02 </wgt>
<wgt id='46'> +5.1648854e+02 </wgt>
<wgt id='47'> +5.2507161e+02 </wgt>
<wgt id='48'> +5.1102518e+02 </wgt>
<wgt id='49'> +4.9774372e+02 </wgt>
<wgt id='50'> +6.1214857e+02 </wgt>
<wgt id='51'> +4.9276740e+02 </wgt>
<wgt id='52'> +5.0291869e+02 </wgt>
<wgt id='53'> +5.0042425e+02 </wgt>
<wgt id='54'> +5.1200315e+02 </wgt>
<wgt id='55'> +4.6819927e+02 </wgt>
<wgt id='56'> +4.5928274e+02 </wgt>
<wgt id='57'> +5.0135426e+02 </wgt>
<wgt id='58'> +4.9315568e+02 </wgt>
<wgt id='59'> +5.1868897e+02 </wgt>
<wgt id='60'> +4.9936649e+02 </wgt>
<wgt id='61'> +4.4971990e+02 </wgt>
<wgt id='62'> +4.9629684e+02 </wgt>
<wgt id='63'> +5.0697137e+02 </wgt>
<wgt id='64'> +4.9300210e+02 </wgt>
<wgt id='65'> +5.7327421e+02 </wgt>
<wgt id='66'> +4.9650462e+02 </wgt>
<wgt id='67'> +5.0831940e+02 </wgt>
<wgt id='68'> +5.5833254e+02 </wgt>
<wgt id='69'> +5.0811574e+02 </wgt>
<wgt id='70'> +4.9775757e+02 </wgt>
<wgt id='71'> +5.1010844e+02 </wgt>
<wgt id='72'> +4.7722037e+02 </wgt>
<wgt id='73'> +4.8831633e+02 </wgt>
<wgt id='74'> +5.3528175e+02 </wgt>
<wgt id='75'> +5.1901573e+02 </wgt>
<wgt id='76'> +4.9446184e+02 </wgt>
<wgt id='77'> +4.9360588e+02 </wgt>
<wgt id='78'> +4.8457729e+02 </wgt>
<wgt id='79'> +4.9711764e+02 </wgt>
<wgt id='80'> +4.9101315e+02 </wgt>
<wgt id='81'> +4.9409448e+02 </wgt>
<wgt id='82'> +5.0201305e+02 </wgt>
<wgt id='83'> +5.1552418e+02 </wgt>
<wgt id='84'> +5.4920437e+02 </wgt>
<wgt id='85'> +5.1894274e+02 </wgt>
<wgt id='86'> +5.0919471e+02 </wgt>
<wgt id='87'> +5.0825432e+02 </wgt>
<wgt id='88'> +5.1133211e+02 </wgt>
<wgt id='89'> +5.1246861e+02 </wgt>
<wgt id='90'> +5.1299501e+02 </wgt>
<wgt id='91'> +5.2106887e+02 </wgt>
<wgt id='92'> +4.5317205e+02 </wgt>
<wgt id='93'> +5.0283829e+02 </wgt>
<wgt id='94'> +4.9038380e+02 </wgt>
<wgt id='95'> +4.9171993e+02 </wgt>
<wgt id='96'> +5.4911353e+02 </wgt>
<wgt id='97'> +5.0017041e+02 </wgt>
<wgt id='98'> +4.9187313e+02 </wgt>
<wgt id='99'> +4.7846479e+02 </wgt>
<wgt id='100'> +4.7059538e+02 </wgt>
<wgt id='101'> +5.5798941e+02 </wgt>
<wgt id='102'> +5.1822119e+02 </wgt>
<wgt id='103'> +5.4713738e+02 </wgt>
<wgt id='104'> +5.1192401e+02 </wgt>
<wgt id='105'> +5.1879356e+02 </wgt>
<wgt id='106'> +4.5491786e+02 </wgt>
<wgt id='107'> +4.7977810e+02 </wgt>
<wgt id='108'> +4.4152795e+02 </wgt>
<wgt id='109'> +4.7086154e+02 </wgt>
<wgt id='110'> +4.9876410e+02 </wgt>
<wgt id='111'> +4.8866479e+02 </wgt>
<wgt id='112'> +4.7676206e+02 </wgt>
<wgt id='113'> +4.6427288e+02 </wgt>
<wgt id='114'> +4.9151503e+02 </wgt>
<wgt id='115'> +4.8213780e+02 </wgt>
<wgt id='116'> +5.2419210e+02 </wgt>
<wgt id='117'> +5.0140350e+02 </wgt>
<wgt id='118'> +5.3117813e+02 </wgt>
<wgt id='119'> +4.8918830e+02 </wgt>
<wgt id='120'> +4.9366289e+02 </wgt>
<wgt id='121'> +4.9078000e+02 </wgt>
<wgt id='122'> +4.9793359e+02 </wgt>
<wgt id='123'> +5.1098384e+02 </wgt>
<wgt id='124'> +5.5999743e+02 </wgt>
<wgt id='125'> +5.6457765e+02 </wgt>
<wgt id='126'> +5.2427289e+02 </wgt>
<wgt id='127'> +5.1982865e+02 </wgt>
<wgt id='128'> +4.5991179e+02 </wgt>
<wgt id='129'> +5.6866357e+02 </wgt>
<wgt id='130'> +5.0485920e+02 </wgt>
<wgt id='131'> +5.2882964e+02 </wgt>
<wgt id='132'> +5.2306589e+02 </wgt>
<wgt id='133'> +5.1843743e+02 </wgt>
<wgt id='134'> +4.8675332e+02 </wgt>
<wgt id='135'> +5.1271061e+02 </wgt>
<wgt id='136'> +5.1258493e+02 </wgt>
<wgt id='137'> +4.8468768e+02 </wgt>
<wgt id='138'> +4.7718324e+02 </wgt>
<wgt id='139'> +5.2030665e+02 </wgt>
<wgt id='140'> +5.2219694e+02 </wgt>
<wgt id='141'> +5.1372984e+02 </wgt>
<wgt id='142'> +4.7676889e+02 </wgt>
<wgt id='143'> +5.1152860e+02 </wgt>
<wgt id='144'> +4.9263693e+02 </wgt>
<wgt id='145'> +5.0211628e+02 </wgt>
</rwgt>
</event>
<event>
 4      1 +5.0481800e+02 2.34378300e+02 7.54677100e-03 1.12359600e-01
       21 -1    0    0  501  502 +0.0000000000e+00 +0.0000000000e+00 +2.9193677649e+01 2.9193677649e+01 0.0000000000e+00 0.0000e+00 -1.0000e+00
       21 -1    0    0  502  503 -0.0000000000e+00 -0.0000000000e+00 -1.8863342709e+03 1.8863342709e+03 0.0000000000e+00 0.0000e+00 1.0000e+00
        6  1    1    2  501    0 +1.7686764330e+01 +1.5713482145e+02 -8.8099823155e+02 9.1164195699e+02 1.7300000000e+02 0.0000e+00 -1.0000e+00
       -6  1    1    2    0  503 -1.7686764330e+01 -1.5713482145e+02 -9.7614236169e+02 1.0038859915e+03 1.7300000000e+02 0.0000e+00 1.0000e+00
<mgrwt>
<rscale>  2 0.23437827E+03</rscale>
<asrwt>0</asrwt>
<pdfrwt beam="1">  1       21 0.44913349E-02 0.23437827E+03</pdfrwt>
<pdfrwt beam="2">  1       21 0.29020528E+00 0.23437827E+03</pdfrwt>
<totfact> 0.12045159E+04</totfact>
</mgrwt>
<rwgt>
<wgt id='1'> +6.9997384e+02 </wgt>
<wgt id='2'> +6.0116708e+02 </wgt>
<wgt id='3'> +5.0481800e+02 </wgt>
<wgt id='4'> +6.9997384e+02 </wgt>
<wgt id='5'> +5.0453444e+02 </wgt>
<wgt id='6'> +6.1290607e+02 </wgt>
<wgt id='7'> +5.2367153e+02 </wgt>
<wgt id='8'> +4.4043490e+02 </wgt>
<wgt id='9'> +6.1290607e+02 </wgt>
<wgt id='10'> +4.4019309e+02 </wgt>
<wgt id='11'> +5.3473772e+02 </wgt>
<wgt id='12'> +4.5834196e+02 </wgt>
<wgt id='13'> +3.8696375e+02 </wgt>
<wgt id='14'> +5.3473772e+02 </wgt>
<wgt id='15'> +3.8675613e+02 </wgt>
<wgt id='16'> +5.7653108e+02 </wgt>
<wgt id='17'> +5.0303992e+02 </wgt>
<wgt id='18'> +4.2675572e+02 </wgt>
<wgt id='19'> +5.7653108e+02 </wgt>
<wgt id='20'> +4.2652682e+02 </wgt>
<wgt id='21'> +4.3819379e+02 </wgt>
<wgt id='22'> +3.7232848e+02 </wgt>
<wgt id='23'> +5.0481800e+02 </wgt>
<wgt id='24'> +3.7213348e+02 </wgt>
<wgt id='25'> +4.4043490e+02 </wgt>
<wgt id='26'> +3.8352782e+02 </wgt>
<wgt id='27'> +3.2712581e+02 </wgt>
<wgt id='28'> +4.4043490e+02 </wgt>
<wgt id='29'> +3.2695857e+02 </wgt>
<wgt id='30'> +4.8737949e+02 </wgt>
<wgt id='31'> +4.2789660e+02 </wgt>
<wgt id='32'> +3.6549136e+02 </wgt>
<wgt id='33'> +4.8737949e+02 </wgt>
<wgt id='34'> +3.6530314e+02 </wgt>
<wgt id='35'> +4.2675572e+02 </wgt>
<wgt id='36'> +3.7273708e+02 </wgt>
<wgt id='37'> +3.1887760e+02 </wgt>
<wgt id='38'> +4.2675572e+02 </wgt>
<wgt id='39'> +3.1871742e+02 </wgt>
<wgt id='40'> +3.7232848e+02 </wgt>
<wgt id='41'> +3.2623703e+02 </wgt>
<wgt id='42'> +2.8016415e+02 </wgt>
<wgt id='43'> +3.7232848e+02 </wgt>
<wgt id='44'> +2.8002692e+02 </wgt>
<wgt id='45'> +5.0481800e+02 </wgt>
<wgt id='46'> +5.1129266e+02 </wgt>
<wgt id='47'> +5.7999348e+02 </wgt>
<wgt id='48'> +5.0525015e+02 </wgt>
<wgt id='49'> +4.4316596e+02 </wgt>
<wgt id='50'> +5.9507437e+02 </wgt>
<wgt id='51'> +4.7585244e+02 </wgt>
<wgt id='52'> +4.1756462e+02 </wgt>
<wgt id='53'> +5.5063019e+02 </wgt>
<wgt id='54'> +5.3891257e+02 </wgt>
<wgt id='55'> +6.2963370e+02 </wgt>
<wgt id='56'> +4.9484017e+02 </wgt>
<wgt id='57'> +5.4963195e+02 </wgt>
<wgt id='58'> +4.2620993e+02 </wgt>
<wgt id='59'> +5.4704080e+02 </wgt>
<wgt id='60'> +4.8666389e+02 </wgt>
<wgt id='61'> +3.9124668e+02 </wgt>
<wgt id='62'> +4.3432680e+02 </wgt>
<wgt id='63'> +5.4000912e+02 </wgt>
<wgt id='64'> +5.0840613e+02 </wgt>
<wgt id='65'> +3.8972359e+02 </wgt>
<wgt id='66'> +5.2418672e+02 </wgt>
<wgt id='67'> +4.9953509e+02 </wgt>
<wgt id='68'> +7.2288776e+02 </wgt>
<wgt id='69'> +6.0105548e+02 </wgt>
<wgt id='70'> +6.4663701e+02 </wgt>
<wgt id='71'> +4.3173565e+02 </wgt>
<wgt id='72'> +4.1741831e+02 </wgt>
<wgt id='73'> +4.3860817e+02 </wgt>
<wgt id='74'> +6.5750219e+02 </wgt>
<wgt id='75'> +6.2776478e+02 </wgt>
<wgt id='76'> +5.1682108e+02 </wgt>
<wgt id='77'> +4.3868846e+02 </wgt>
<wgt id='78'> +4.0737533e+02 </wgt>
<wgt id='79'> +5.8157324e+02 </wgt>
<wgt id='80'> +3.9409555e+02 </wgt>
<wgt id='81'> +5.5898681e+02 </wgt>
<wgt id='82'> +5.0083816e+02 </wgt>
<wgt id='83'> +5.0280713e+02 </wgt>
<wgt id='84'> +4.4486806e+02 </wgt>
<wgt id='85'> +4.1801178e+02 </wgt>
<wgt id='86'> +5.6216129e+02 </wgt>
<wgt id='87'> +4.7523911e+02 </wgt>
<wgt id='88'> +5.2619120e+02 </wgt>
<wgt id='89'> +3.2949879e+02 </wgt>
<wgt id='90'> +4.1260274e+02 </wgt>
<wgt id='91'> +3.7880855e+02 </wgt>
<wgt id='92'> +4.7757483e+02 </wgt>
<wgt id='93'> +5.2957348e+02 </wgt>
<wgt id='94'> +4.4091633e+02 </wgt>
<wgt id='95'> +5.2567814e+02 </wgt>
<wgt id='96'> +5.1259739e+02 </wgt>
<wgt id='97'> +4.2354169e+02 </wgt>
<wgt id='98'> +6.1441460e+02 </wgt>
<wgt id='99'> +3.8024184e+02 </wgt>
<wgt id='100'> +3.2546528e+02 </wgt>
<wgt id='101'> +6.0950513e+02 </wgt>
<wgt id='102'> +5.9752606e+02 </wgt>
<wgt id='103'> +4.2692101e+02 </wgt>
<wgt id='104'> +5.7033815e+02 </wgt>
<wgt id='105'> +5.1459916e+02 </wgt>
<wgt id='106'> +5.1934663e+02 </wgt>
<wgt id='107'> +5.2394533e+02 </wgt>
<wgt id='108'> +4.7229968e+02 </wgt>
<wgt id='109'> +5.0875269e+02 </wgt>
<wgt id='110'> +4.0923542e+02 </wgt>
<wgt id='111'> +4.7470090e+02 </wgt>
<wgt id='112'> +5.2921085e+02 </wgt>
<wgt id='113'> +6.1641901e+02 </wgt>
<wgt id='114'> +4.9302936e+02 </wgt>
<wgt id='115'> +4.7986059e+02 </wgt>
<wgt id='116'> +5.8131998e+02 </wgt>
<wgt id='117'> +5.1525550e+02 </wgt>
<wgt id='118'> +4.9982441e+02 </wgt>
<wgt id='119'> +5.6224600e+02 </wgt>
<wgt id='120'> +4.9570341e+02 </wgt>
<wgt id='121'> +4.6287295e+02 </wgt>
<wgt id='122'> +4.7621804e+02 </wgt>
<wgt id='123'> +4.4743843e+02 </wgt>
<wgt id='124'> +5.6373620e+02 </wgt>
<wgt id='125'> +7.2391995e+02 </wgt>
<wgt id='126'> +4.7663470e+02 </wgt>
<wgt id='127'> +4.5233982e+02 </wgt>
<wgt id='128'> +5.0830773e+02 </wgt>
<wgt id='129'> +4.7283299e+02 </wgt>
<wgt id='130'> +5.0014667e+02 </wgt>
<wgt id='131'> +4.2472923e+02 </wgt>
<wgt id='132'> +5.3730454e+02 </wgt>
<wgt id='133'> +5.6522588e+02 </wgt>
<wgt id='134'> +5.6816976e+02 </wgt>
<wgt id='135'> +4.6820939e+02 </wgt>
<wgt id='136'> +6.2603727e+02 </wgt>
<wgt id='137'> +6.0246903e+02 </wgt>
<wgt id='138'> +5.6155162e+02 </wgt>
<wgt id='139'> +5.2675755e+02 </wgt>
<wgt id='140'> +4.8286345e+02 </wgt>
<wgt id='141'> +6.6299073e+02 </wgt>
<wgt id='142'> +2.3929422e+02 </wgt>
<wgt id='143'> +5.1036320e+02 </wgt>
<wgt id='144'> +4.3061138e+02 </wgt>
<wgt id='145'> +4.5137270e+02 </wgt>
</rwgt>
</event>
<event>
 4      1 +5.0481800e+02 2.51615600e+02 7.54677100e-03 1.11228800e-01
       21 -1    0    0  501  502 +0.0000000000e+00 +0.0000000000e+00 +1.3254077592e+03 1.3254077592e+03 0.0000000000e+00 0.0000e+00 -1.0000e+00
       21 -1    0    0  502  503 -0.0000000000e+00 -0.0000000000e+00 -4.8013818237e+01 4.8013818237e+01 0.0000000000e+00 0.0000e+00 1.0000e+00
        6  1    1    2  501    0 +1.9705405596e+00 -1.8269517938e+02 +6.8795822800e+02 7.3252777086e+02 1.7300000000e+02 0.0000e+00 1.0000e+00
       -6  1    1    2    0  503 -1.9705405596e+00 +1.8269517938e+02 +5.8943571292e+02 6.4089380654e+02 1.7300000000e+02 0.0000e+00 -1.0000e+00
<mgrwt>
<rscale>  2 0.25161560E+03</rscale>
<asrwt>0</asrwt>
<pdfrwt beam="1">  1       21 0.20390886E+00 0.25161560E+03</pdfrwt>
<pdfrwt beam="2">  1       21 0.73867423E-02 0.25161560E+03</pdfrwt>
<totfact> 0.16758010E+04</totfact>
</mgrwt>
<rwgt>
<wgt id='1'> +6.7558473e+02 </wgt>
<wgt id='2'> +5.6818462e+02 </wgt>
<wgt id='3'> +5.0481800e+02 </wgt>
<wgt id='4'> +6.7558473e+02 </wgt>
<wgt id='5'> +5.0428847e+02 </wgt>
<wgt id='6'> +6.1066266e+02 </wgt>
<wgt id='7'> +5.1002307e+02 </wgt>
<wgt id='8'> +4.5362578e+02 </wgt>
<wgt id='9'> +6.1066266e+02 </wgt>
<wgt id='10'> +4.5315511e+02 </wgt>
<wgt id='11'> +5.4873702e+02 </wgt>
<wgt id='12'> +4.5919165e+02 </wgt>
<wgt id='13'> +4.0902081e+02 </wgt>
<wgt id='14'> +5.4873702e+02 </wgt>
<wgt id='15'> +4.0860202e+02 </wgt>
<wgt id='16'> +5.5848729e+02 </wgt>
<wgt id='17'> +4.7808813e+02 </wgt>
<wgt id='18'> +4.2736674e+02 </wgt>
<wgt id='19'> +5.5848729e+02 </wgt>
<wgt id='20'> +4.2694037e+02 </wgt>
<wgt id='21'> +4.2914921e+02 </wgt>
<wgt id='22'> +3.8402864e+02 </wgt>
<wgt id='23'> +5.0481800e+02 </wgt>
<wgt id='24'> +3.8364989e+02 </wgt>
<wgt id='25'> +4.5362578e+02 </wgt>
<wgt id='26'> +3.8637807e+02 </wgt>
<wgt id='27'> +3.4626715e+02 </wgt>
<wgt id='28'> +4.5362578e+02 </wgt>
<wgt id='29'> +3.4593038e+02 </wgt>
<wgt id='30'> +4.7280187e+02 </wgt>
<wgt id='31'> +4.0788848e+02 </wgt>
<wgt id='32'> +3.6646358e+02 </wgt>
<wgt id='33'> +4.7280187e+02 </wgt>
<wgt id='34'> +3.6611413e+02 </wgt>
<wgt id='35'> +4.2736674e+02 </wgt>
<wgt id='36'> +3.6613546e+02 </wgt>
<wgt id='37'> +3.2930150e+02 </wgt>
<wgt id='38'> +4.2736674e+02 </wgt>
<wgt id='39'> +3.2899124e+02 </wgt>
<wgt id='40'> +3.8402864e+02 </wgt>
<wgt id='41'> +3.2964459e+02 </wgt>
<wgt id='42'> +2.9692132e+02 </wgt>
<wgt id='43'> +3.8402864e+02 </wgt>
<wgt id='44'> +2.9664563e+02 </wgt>
<wgt id='45'> +5.0481800e+02 </wgt>
<wgt id='46'> +5.1765969e+02 </wgt>
<wgt id='47'> +5.2819062e+02 </wgt>
<wgt id='48'> +5.0371500e+02 </wgt>
<wgt id='49'> +4.6356113e+02 </wgt>
<wgt id='50'> +5.9178304e+02 </wgt>
<wgt id='51'> +4.7482936e+02 </wgt>
<wgt id='52'> +4.6657034e+02 </wgt>
<wgt id='53'> +5.1132426e+02 </wgt>
<wgt id='54'> +5.3644070e+02 </wgt>
<wgt id='55'> +5.6976412e+02 </wgt>
<wgt id='56'> +4.8473858e+02 </wgt>
<wgt id='57'> +5.3692574e+02 </wgt>
<wgt id='58'> +4.5510223e+02 </wgt>
<wgt id='59'> +5.4711161e+02 </wgt>
<wgt id='60'> +5.0120574e+02 </wgt>
<wgt id='61'> +4.3672410e+02 </wgt>
<wgt id='62'> +4.6232362e+02 </wgt>
<wgt id='63'> +5.3323703e+02 </wgt>
<wgt id='64'> +5.0566270e+02 </wgt>
<wgt id='65'> +4.5831103e+02 </wgt>
<wgt id='66'> +5.1287104e+02 </wgt>
<wgt id='67'> +5.0836127e+02 </wgt>
<wgt id='68'> +6.2091497e+02 </wgt>
<wgt id='69'> +5.5111969e+02 </wgt>
<wgt id='70'> +5.5238819e+02 </wgt>
<wgt id='71'> +4.6718391e+02 </wgt>
<wgt id='72'> +4.5867170e+02 </wgt>
<wgt id='73'> +4.5552013e+02 </wgt>
<wgt id='74'> +5.8492256e+02 </wgt>
<wgt id='75'> +5.5588872e+02 </wgt>
<wgt id='76'> +5.1912282e+02 </wgt>
<wgt id='77'> +4.7336274e+02 </wgt>
<wgt id='78'> +4.3379757e+02 </wgt>
<wgt id='79'> +5.4337201e+02 </wgt>
<wgt id='80'> +4.4413685e+02 </wgt>
<wgt id='81'> +5.2659894e+02 </wgt>
<wgt id='82'> +4.9793231e+02 </wgt>
<wgt id='83'> +4.9900269e+02 </wgt>
<wgt id='84'> +4.9097775e+02 </wgt>
<wgt id='85'> +4.5379095e+02 </wgt>
<wgt id='86'> +5.3295472e+02 </wgt>
<wgt id='87'> +4.9580494e+02 </wgt>
<wgt id='88'> +4.9577401e+02 </wgt>
<wgt id='89'> +4.2161959e+02 </wgt>
<wgt id='90'> +4.6536692e+02 </wgt>
<wgt id='91'> +4.3660175e+02 </wgt>
<wgt id='92'> +4.7441836e+02 </wgt>
<wgt id='93'> +5.1125759e+02 </wgt>
<wgt id='94'> +4.6245563e+02 </wgt>
<wgt id='95'> +5.2953990e+02 </wgt>
<wgt id='96'> +5.2875855e+02 </wgt>
<wgt id='97'> +4.5556572e+02 </wgt>
<wgt id='98'> +5.4872216e+02 </wgt>
<wgt id='99'> +4.2083734e+02 </wgt>
<wgt id='100'> +3.8250809e+02 </wgt>
<wgt id='101'> +5.8853791e+02 </wgt>
<wgt id='102'> +5.6851780e+02 </wgt>
<wgt id='103'> +4.7768401e+02 </wgt>
<wgt id='104'> +5.4357841e+02 </wgt>
<wgt id='105'> +5.1668681e+02 </wgt>
<wgt id='106'> +4.9341334e+02 </wgt>
<wgt id='107'> +4.9217753e+02 </wgt>
<wgt id='108'> +4.7354632e+02 </wgt>
<wgt id='109'> +4.9976761e+02 </wgt>
<wgt id='110'> +4.5975411e+02 </wgt>
<wgt id='111'> +4.8927734e+02 </wgt>
<wgt id='112'> +5.2676252e+02 </wgt>
<wgt id='113'> +5.3719152e+02 </wgt>
<wgt id='114'> +5.2333764e+02 </wgt>
<wgt id='115'> +4.6590582e+02 </wgt>
<wgt id='116'> +5.5561225e+02 </wgt>
<wgt id='117'> +4.9643840e+02 </wgt>
<wgt id='118'> +5.1751141e+02 </wgt>
<wgt id='119'> +5.5518329e+02 </wgt>
<wgt id='120'> +5.0486877e+02 </wgt>
<wgt id='121'> +4.9324951e+02 </wgt>
<wgt id='122'> +4.9226808e+02 </wgt>
<wgt id='123'> +4.7894288e+02 </wgt>
<wgt id='124'> +5.6798064e+02 </wgt>
<wgt id='125'> +6.3940911e+02 </wgt>
<wgt id='126'> +4.9277072e+02 </wgt>
<wgt id='127'> +4.8013573e+02 </wgt>
<wgt id='128'> +4.9015697e+02 </wgt>
<wgt id='129'> +5.1181621e+02 </wgt>
<wgt id='130'> +4.9929765e+02 </wgt>
<wgt id='131'> +4.6159623e+02 </wgt>
<wgt id='132'> +5.4968436e+02 </wgt>
<wgt id='133'> +5.5110553e+02 </wgt>
<wgt id='134'> +5.3305994e+02 </wgt>
<wgt id='135'> +4.8150213e+02 </wgt>
<wgt id='136'> +5.9578637e+02 </wgt>
<wgt id='137'> +5.3546778e+02 </wgt>
<wgt id='138'> +5.1972023e+02 </wgt>
<wgt id='139'> +5.2020004e+02 </wgt>
<wgt id='140'> +4.9225973e+02 </wgt>
<wgt id='141'> +5.8026653e+02 </wgt>
<wgt id='142'> +3.4751245e+02 </wgt>
<wgt id='143'> +5.1614025e+02 </wgt>
<wgt id='144'> +4.5691689e+02 </wgt>
<wgt id='145'> +4.6394125e+02 </wgt>
</rwgt>
</event>
<event>
 4      1 +5.0481800e+02 2.23757900e+02 7.54677100e-03 1.13111200e-01
       21 -1    0    0  501  502 +0.0000000000e+00 +0.0000000000e+00 +7.4872531075e+01 7.4872531075e+01 0.0000000000e+00 0.0000e+00 -1.0000e+00
       21 -1    0    0  502  503 -0.0000000000e+00 -0.0000000000e+00 -6.9285125928e+02 6.9285125928e+02 0.0000000000e+00 0.0000e+00 -1.0000e+00
        6  1    1    2  501    0 -1.4022975496e+02 +2.1776104139e+01 -2.3732779819e+02 3.2617796780e+02 1.7300000000e+02 0.0000e+00 -1.0000e+00
       -6  1    1    2    0  503 +1.4022975496e+02 -2.1776104139e+01 -3.8065093002e+02 4.4154582255e+02 1.7300000000e+02 0.0000e+00 -1.0000e+00
<mgrwt>
<rscale>  2 0.22375787E+03</rscale>
<asrwt>0</asrwt>
<pdfrwt beam="1">  1       21 0.11518851E-01 0.22375787E+03</pdfrwt>
<pdfrwt beam="2">  1       21 0.10659250E+00 0.22375787E+03</pdfrwt>
<totfact> 0.43778959E+04</totfact>
</mgrwt>
<rwgt>
<wgt id='1'> +6.5395916e+02 </wgt>
<wgt id='2'> +5.6993670e+02 </wgt>
<wgt id='3'> +5.0481800e+02 </wgt>
<wgt id='4'> +6.5395917e+02 </wgt>
<wgt id='5'> +5.0158851e+02 </wgt>
<wgt id='6'> +6.1442812e+02 </wgt>
<wgt id='7'> +5.3006299e+02 </wgt>
<wgt id='8'> +4.6839134e+02 </wgt>
<wgt id='9'> +6.1442812e+02 </wgt>
<wgt id='10'> +4.6540727e+02 </wgt>
<wgt id='11'> +5.7009221e+02 </wgt>
<wgt id='12'> +4.9189884e+02 </wgt>
<wgt id='13'> +4.3481241e+02 </wgt>
<wgt id='14'> +5.7009222e+02 </wgt>
<wgt id='15'> +4.3205207e+02 </wgt>
<wgt id='16'> +5.3729695e+02 </wgt>
<wgt id='17'> +4.7691061e+02 </wgt>
<wgt id='18'> +4.2636658e+02 </wgt>
<wgt id='19'> +5.3729696e+02 </wgt>
<wgt id='20'> +4.2378222e+02 </wgt>
<wgt id='21'> +4.4354515e+02 </wgt>
<wgt id='22'> +3.9560082e+02 </wgt>
<wgt id='23'> +5.0481800e+02 </wgt>
<wgt id='24'> +3.9321341e+02 </wgt>
<wgt id='25'> +4.6839134e+02 </wgt>
<wgt id='26'> +4.1161023e+02 </wgt>
<wgt id='27'> +3.6724023e+02 </wgt>
<wgt id='28'> +4.6839134e+02 </wgt>
<wgt id='29'> +3.6503226e+02 </wgt>
<wgt id='30'> +4.5379813e+02 </wgt>
<wgt id='31'> +4.0567177e+02 </wgt>
<wgt id='32'> +3.6486379e+02 </wgt>
<wgt id='33'> +4.5379813e+02 </wgt>
<wgt id='34'> +3.6276426e+02 </wgt>
<wgt id='35'> +4.2636658e+02 </wgt>
<wgt id='36'> +3.7729030e+02 </wgt>
<wgt id='37'> +3.3853595e+02 </wgt>
<wgt id='38'> +4.2636658e+02 </wgt>
<wgt id='39'> +3.3659688e+02 </wgt>
<wgt id='40'> +3.9560082e+02 </wgt>
<wgt id='41'> +3.5012568e+02 </wgt>
<wgt id='42'> +3.1426634e+02 </wgt>
<wgt id='43'> +3.9560082e+02 </wgt>
<wgt id='44'> +3.1247337e+02 </wgt>
<wgt id='45'> +5.0481800e+02 </wgt>
<wgt id='46'> +5.1543432e+02 </wgt>
<wgt id='47'> +5.1922735e+02 </wgt>
<wgt id='48'> +5.0719684e+02 </wgt>
<wgt id='49'> +4.9394388e+02 </wgt>
<wgt id='50'> +5.9640204e+02 </wgt>
<wgt id='51'> +4.9086738e+02 </wgt>
<wgt id='52'> +5.0162844e+02 </wgt>
<wgt id='53'> +4.9900033e+02 </wgt>
<wgt id='54'> +5.1517357e+02 </wgt>
<wgt id='55'> +4.8669035e+02 </wgt>
<wgt id='56'> +4.6425867e+02 </wgt>
<wgt id='57'> +5.1009024e+02 </wgt>
<wgt id='58'> +4.9155836e+02 </wgt>
<wgt id='59'> +5.2561962e+02 </wgt>
<wgt id='60'> +5.0406930e+02 </wgt>
<wgt id='61'> +4.4529800e+02 </wgt>
<wgt id='62'> +4.9263711e+02 </wgt>
<wgt id='63'> +5.0920182e+02 </wgt>
<wgt id='64'> +4.9705290e+02 </wgt>
<wgt id='65'> +5.5017902e+02 </wgt>
<wgt id='66'> +4.9752088e+02 </wgt>
<wgt id='67'> +5.0751939e+02 </wgt>
<wgt id='68'> +5.5859714e+02 </wgt>
<wgt id='69'> +5.0646322e+02 </wgt>
<wgt id='70'> +5.0195237e+02 </wgt>
<wgt id='71'> +5.0625905e+02 </wgt>
<wgt id='72'> +4.8566822e+02 </wgt>
<wgt id='73'> +4.8613018e+02 </wgt>
<wgt id='74'> +5.3608623e+02 </wgt>
<wgt id='75'> +5.1784148e+02 </wgt>
<wgt id='76'> +5.0112184e+02 </wgt>
<wgt id='77'> +4.9385185e+02 </wgt>
<wgt id='78'> +4.7911252e+02 </wgt>
<wgt id='79'> +5.0243680e+02 </wgt>
<wgt id='80'> +4.8789245e+02 </wgt>
<wgt id='81'> +4.9795856e+02 </wgt>
<wgt id='82'> +4.9578703e+02 </wgt>
<wgt id='83'> +5.0864014e+02 </wgt>
<wgt id='84'> +5.3591667e+02 </wgt>
<wgt id='85'> +5.0806845e+02 </wgt>
<wgt id='86'> +5.0869438e+02 </wgt>
<wgt id='87'> +5.0727233e+02 </wgt>
<wgt id='88'> +5.0523029e+02 </wgt>
<wgt id='89'> +5.0374743e+02 </wgt>
<wgt id='90'> +5.1075618e+02 </wgt>
<wgt id='91'> +5.0954135e+02 </wgt>
<wgt id='92'> +4.6470784e+02 </wgt>
<wgt id='93'> +5.0283057e+02 </wgt>
<wgt id='94'> +4.8863061e+02 </wgt>
<wgt id='95'> +5.0293041e+02 </wgt>
<wgt id='96'> +5.3684115e+02 </wgt>
<wgt id='97'> +4.9563296e+02 </wgt>
<wgt id='98'> +4.9854734e+02 </wgt>
<wgt id='99'> +4.7427857e+02 </wgt>
<wgt id='100'> +4.6414587e+02 </wgt>
<wgt id='101'> +5.5793480e+02 </wgt>
<wgt id='102'> +5.2274551e+02 </wgt>
<wgt id='103'> +5.3607926e+02 </wgt>
<wgt id='104'> +5.1168478e+02 </wgt>
<wgt id='105'> +5.2087917e+02 </wgt>
<wgt id='106'> +4.6553744e+02 </wgt>
<wgt id='107'> +4.8277342e+02 </wgt>
<wgt id='108'> +4.5092143e+02 </wgt>
<wgt id='109'> +4.7972335e+02 </wgt>
<wgt id='110'> +4.9745875e+02 </wgt>
<wgt id='111'> +4.9218976e+02 </wgt>
<wgt id='112'> +4.8426590e+02 </wgt>
<wgt id='113'> +4.7497028e+02 </wgt>
<wgt id='114'> +4.9870854e+02 </wgt>
<wgt id='115'> +4.7835703e+02 </wgt>
<wgt id='116'> +5.2384417e+02 </wgt>
<wgt id='117'> +4.9857709e+02 </wgt>
<wgt id='118'> +5.2733373e+02 </wgt>
<wgt id='119'> +4.9935281e+02 </wgt>
<wgt id='120'> +4.9526999e+02 </wgt>
<wgt id='121'> +4.9735048e+02 </wgt>
<wgt id='122'> +4.9916582e+02 </wgt>
<wgt id='123'> +5.0537328e+02 </wgt>
<wgt id='124'> +5.5733057e+02 </wgt>
<wgt id='125'> +5.6698062e+02 </wgt>
<wgt id='126'> +5.1669043e+02 </wgt>
<wgt id='127'> +5.1384458e+02 </wgt>
<wgt id='128'> +4.6260969e+02 </wgt>
<wgt id='129'> +5.5862468e+02 </wgt>
<wgt id='130'> +4.9853423e+02 </wgt>
<wgt id='131'> +5.1943707e+02 </wgt>
<wgt id='132'> +5.3183674e+02 </wgt>
<wgt id='133'> +5.2095307e+02 </wgt>
<wgt id='134'> +4.9536181e+02 </wgt>
<wgt id='135'> +5.0854616e+02 </wgt>
<wgt id='136'> +5.2824226e+02 </wgt>
<wgt id='137'> +4.8766514e+02 </wgt>
<wgt id='138'> +4.7818629e+02 </wgt>
<wgt id='139'> +5.1940126e+02 </wgt>
<wgt id='140'> +5.1629782e+02 </wgt>
<wgt id='141'> +5.1788597e+02 </wgt>
<wgt id='142'> +4.6776488e+02 </wgt>
<wgt id='143'> +5.1521481e+02 </wgt>
<wgt id='144'> +4.9182236e+02 </wgt>
<wgt id='145'> +4.9731457e+02 </wgt>
</rwgt>
</event>
<event>
 4      1 +5.0481800e+02 2.87853900e+02 7.54677100e-03 1.09147500e-01
       21 -1    0    0  501  502 +0.0000000000e+00 +0.0000000000e+00 +6.2394452856e+02 6.2394452856e+02 0.0000000000e+00 0.0000e+00 1.0000e+00
       21 -1    0    0  502  503 -0.0000000000e+00 -0.0000000000e+00 -1.7366096266e+02 1.7366096266e+02 0.0000000000e+00 0.0000e+00 1.0000e+00
        6  1    1    2  501    0 +2.1382521964e+02 -8.4909456571e+01 +4.1858846053e+02 5.0801194834e+02 1.7300000000e+02 0.0000e+00 1.0000e+00
       -6  1    1    2    0  503 -2.1382521964e+02 +8.4909456571e+01 +3.1695105373e+01 2.8959354287e+02 1.7300000000e+02 0.0000e+00 1.0000e+00
<mgrwt>
<rscale>  2 0.28785385E+03</rscale>
<asrwt>0</asrwt>
<pdfrwt beam="1">  1       21 0.95991465E-01 0.28785385E+03</pdfrwt>
<pdfrwt beam="2">  1       21 0.26717071E-01 0.28785385E+03</pdfrwt>
<totfact> 0.11415537E+04</totfact>
</mgrwt>
<rwgt>
<wgt id='1'> +6.6368588e+02 </wgt>
<wgt id='2'> +5.2049904e+02 </wgt>
<wgt id='3'> +5.0481800e+02 </wgt>
<wgt id='4'> +6.6368587e+02 </wgt>
<wgt id='5'> +4.7974880e+02 </wgt>
<wgt id='6'> +6.0646169e+02 </wgt>
<wgt id='7'> +4.7421189e+02 </wgt>
<wgt id='8'> +4.6005534e+02 </wgt>
<wgt id='9'> +6.0646169e+02 </wgt>
<wgt id='10'> +4.3742298e+02 </wgt>
<wgt id='11'> +5.5268620e+02 </wgt>
<wgt id='12'> +4.3318403e+02 </wgt>
<wgt id='13'> +4.2038901e+02 </wgt>
<wgt id='14'> +5.5268620e+02 </wgt>
<wgt id='15'> +3.9992956e+02 </wgt>
<wgt id='16'> +5.5245135e+02 </wgt>
<wgt id='17'> +4.4112104e+02 </wgt>
<wgt id='18'> +4.2850270e+02 </wgt>
<wgt id='19'> +5.5245134e+02 </wgt>
<wgt id='20'> +4.0826439e+02 </wgt>
<wgt id='21'> +4.0189285e+02 </wgt>
<wgt id='22'> +3.9050699e+02 </wgt>
<wgt id='23'> +5.0481800e+02 </wgt>
<wgt id='24'> +3.7224529e+02 </wgt>
<wgt id='25'> +4.6005534e+02 </wgt>
<wgt id='26'> +3.6712188e+02 </wgt>
<wgt id='27'> +3.5683717e+02 </wgt>
<wgt id='28'> +4.6005534e+02 </wgt>
<wgt id='29'> +3.4033853e+02 </wgt>
<wgt id='30'> +4.6893513e+02 </wgt>
<wgt id='31'> +3.7860845e+02 </wgt>
<wgt id='32'> +3.6826791e+02 </wgt>
<wgt id='33'> +4.6893513e+02 </wgt>
<wgt id='34'> +3.5164369e+02 </wgt>
<wgt id='35'> +4.2850270e+02 </wgt>
<wgt id='36'> +3.4493940e+02 </wgt>
<wgt id='37'> +3.3561327e+02 </wgt>
<wgt id='38'> +4.2850270e+02 </wgt>
<wgt id='39'> +3.2061994e+02 </wgt>
<wgt id='40'> +3.9050699e+02 </wgt>
<wgt id='41'> +3.1509594e+02 </wgt>
<wgt id='42'> +3.0667643e+02 </wgt>
<wgt id='43'> +3.9050699e+02 </wgt>
<wgt id='44'> +2.9313822e+02 </wgt>
<wgt id='45'> +5.0481800e+02 </wgt>
<wgt id='46'> +5.1880064e+02 </wgt>
<wgt id='47'> +5.2570174e+02 </wgt>
<wgt id='48'> +5.1145222e+02 </wgt>
<wgt id='49'> +4.9571877e+02 </wgt>
<wgt id='50'> +6.1714500e+02 </wgt>
<wgt id='51'> +4.9176948e+02 </wgt>
<wgt id='52'> +5.0211320e+02 </wgt>
<wgt id='53'> +4.9875488e+02 </wgt>
<wgt id='54'> +5.1355599e+02 </wgt>
<wgt id='55'> +4.7296429e+02 </wgt>
<wgt id='56'> +4.5784140e+02 </wgt>
<wgt id='57'> +5.0375667e+02 </wgt>
<wgt id='58'> +4.8908703e+02 </wgt>
<wgt id='59'> +5.2307905e+02 </wgt>
<wgt id='60'> +5.0176321e+02 </wgt>
<wgt id='61'> +4.4464892e+02 </wgt>
<wgt id='62'> +4.9513000e+02 </wgt>
<wgt id='63'> +5.0798808e+02 </wgt>
<wgt id='64'> +4.9208449e+02 </wgt>
<wgt id='65'> +5.6735034e+02 </wgt>
<wgt id='66'> +4.9766100e+02 </wgt>
<wgt id='67'> +5.0806158e+02 </wgt>
<wgt id='68'> +5.6249669e+02 </wgt>
<wgt id='69'> +5.1227978e+02 </wgt>
<wgt id='70'> +4.9894205e+02 </wgt>
<wgt id='71'> +5.0822237e+02 </wgt>
<wgt id='72'> +4.7366031e+02 </wgt>
<wgt id='73'> +4.8526228e+02 </wgt>
<wgt id='74'> +5.3930085e+02 </wgt>
<wgt id='75'> +5.2023482e+02 </wgt>
<wgt id='76'> +4.9560824e+02 </wgt>
<wgt id='77'> +4.9436095e+02 </wgt>
<wgt id='78'> +4.7957969e+02 </wgt>
<wgt id='79'> +5.0034265e+02 </wgt>
<wgt id='80'> +4.8843355e+02 </wgt>
<wgt id='81'> +4.9432067e+02 </wgt>
<wgt id='82'> +4.9878672e+02 </wgt>
<wgt id='83'> +5.1542151e+02 </wgt>
<wgt id='84'> +5.4737361e+02 </wgt>
<wgt id='85'> +5.1530529e+02 </wgt>
<wgt id='86'> +5.1133888e+02 </wgt>
<wgt id='87'> +5.0858559e+02 </wgt>
<wgt id='88'> +5.1110755e+02 </wgt>
<wgt id='89'> +5.0950771e+02 </wgt>
<wgt id='90'> +5.1213459e+02 </wgt>
<wgt id='91'> +5.1624939e+02 </wgt>
<wgt id='92'> +4.5068889e+02 </wgt>
<wgt id='93'> +5.0425392e+02 </wgt>
<wgt id='94'> +4.8711412e+02 </wgt>
<wgt id='95'> +4.9371322e+02 </wgt>
<wgt id='96'> +5.4982444e+02 </wgt>
<wgt id='97'> +4.9675004e+02 </wgt>
<wgt id='98'> +4.9518039e+02 </wgt>
<wgt id='99'> +4.7465285e+02 </wgt>
<wgt id='100'> +4.6259287e+02 </wgt>
<wgt id='101'> +5.6425383e+02 </wgt>
<wgt id='102'> +5.2489505e+02 </wgt>
<wgt id='103'> +5.4540438e+02 </wgt>
<wgt id='104'> +5.1449455e+02 </wgt>
<wgt id='105'> +5.1742424e+02 </wgt>
<wgt id='106'> +4.5330383e+02 </wgt>
<wgt id='107'> +4.7619463e+02 </wgt>
<wgt id='108'> +4.4005857e+02 </wgt>
<wgt id='109'> +4.7070272e+02 </wgt>
<wgt id='110'> +4.9640768e+02 </wgt>
<wgt id='111'> +4.8804868e+02 </wgt>
<wgt id='112'> +4.7728429e+02 </wgt>
<wgt id='113'> +4.6555717e+02 </wgt>
<wgt id='114'> +4.9014783e+02 </wgt>
<wgt id='115'> +4.7796448e+02 </wgt>
<wgt id='116'> +5.2899642e+02 </wgt>
<wgt id='117'> +4.9951670e+02 </wgt>
<wgt id='118'> +5.3367475e+02 </wgt>
<wgt id='119'> +4.9122196e+02 </wgt>
<wgt id='120'> +4.9302409e+02 </wgt>
<wgt id='121'> +4.9076998e+02 </wgt>
<wgt id='122'> +4.9736905e+02 </wgt>
<wgt id='123'> +5.1054117e+02 </wgt>
<wgt id='124'> +5.6450331e+02 </wgt>
<wgt id='125'> +5.7107959e+02 </wgt>
<wgt id='126'> +5.2377644e+02 </wgt>
<wgt id='127'> +5.1896104e+02 </wgt>
<wgt id='128'> +4.5917269e+02 </wgt>
<wgt id='129'> +5.6689187e+02 </wgt>
<wgt id='130'> +5.0515343e+02 </wgt>
<wgt id='131'> +5.2535656e+02 </wgt>
<wgt id='132'> +5.2764693e+02 </wgt>
<wgt id='133'> +5.2251128e+02 </wgt>
<wgt id='134'> +4.8967586e+02 </wgt>
<wgt id='135'> +5.1100183e+02 </wgt>
<wgt id='136'> +5.1954376e+02 </wgt>
<wgt id='137'> +4.8755747e+02 </wgt>
<wgt id='138'> +4.8210979e+02 </wgt>
<wgt id='139'> +5.2135211e+02 </wgt>
<wgt id='140'> +5.1883036e+02 </wgt>
<wgt id='141'> +5.1729006e+02 </wgt>
<wgt id='142'> +4.6991258e+02 </wgt>
<wgt id='143'> +5.1337785e+02 </wgt>
<wgt id='144'> +4.8921539e+02 </wgt>
<wgt id='145'> +5.0006528e+02 </wgt>
</rwgt>
</event>
<event>
 4      1 +5.0481800e+02 2.01880100e+02 7.54677100e-03 1.14816200e-01
       21 -1    0    0  501  502 +0.0000000000e+00 +0.0000000000e+00 +1.6115289994e+02 1.6115289994e+02 0.0000000000e+00 0.0000e+00 1.0000e+00
       21 -1    0    0  502  503 -0.0000000000e+00 -0.0000000000e+00 -2.5297898189e+02 2.5297898189e+02 0.0000000000e+00 0.0000e+00 -1.0000e+00
        6  1    1    2  501    0 -1.6838448738e+01 -1.0267923176e+02 -4.2252817488e+01 2.0625435408e+02 1.7300000000e+02 0.0000e+00 1.0000e+00
       -6  1    1    2    0  503 +1.6838448738e+01 +1.0267923176e+02 -4.9573264465e+01 2.0787752774e+02 1.7300000000e+02 0.0000e+00 1.0000e+00
<mgrwt>
<rscale>  2 0.20188006E+03</rscale>
<asrwt>0</asrwt>
<pdfrwt beam="1">  1       21 0.24792754E-01 0.20188006E+03</pdfrwt>
<pdfrwt beam="2">  1       21 0.38919843E-01 0.20188006E+03</pdfrwt>
<totfact> 0.97591577E+04</totfact>
</mgrwt>
<rwgt>
<wgt id='1'> +6.4352205e+02 </wgt>
<wgt id='2'> +5.1593052e+02 </wgt>
<wgt id='3'> +5.0481800e+02 </wgt>
<wgt id='4'> +6.4352205e+02 </wgt>
<wgt id='5'> +5.0479120e+02 </wgt>
<wgt id='6'> +6.1797738e+02 </wgt>
<wgt id='7'> +4.8711542e+02 </wgt>
<wgt id='8'> +4.7641426e+02 </wgt>
<wgt id='9'> +6.1797739e+02 </wgt>
<wgt id='10'> +4.7638870e+02 </wgt>
<wgt id='11'> +5.8320670e+02 </wgt>
<wgt id='12'> +4.5934965e+02 </wgt>
<wgt id='13'> +4.4923774e+02 </wgt>
<wgt id='14'> +5.8320670e+02 </wgt>
<wgt id='15'> +4.4921359e+02 </wgt>
<wgt id='16'> +5.2568511e+02 </wgt>
<wgt id='17'> +4.3415269e+02 </wgt>
<wgt id='18'> +4.2550579e+02 </wgt>
<wgt id='19'> +5.2568512e+02 </wgt>
<wgt id='20'> +4.2548469e+02 </wgt>
<wgt id='21'> +4.0990495e+02 </wgt>
<wgt id='22'> +4.0156458e+02 </wgt>
<wgt id='23'> +5.0481800e+02 </wgt>
<wgt id='24'> +4.0154444e+02 </wgt>
<wgt id='25'> +4.7641426e+02 </wgt>
<wgt id='26'> +3.8654020e+02 </wgt>
<wgt id='27'> +3.7865777e+02 </wgt>
<wgt id='28'> +4.7641426e+02 </wgt>
<wgt id='29'> +3.7863874e+02 </wgt>
<wgt id='30'> +4.4309446e+02 </wgt>
<wgt id='31'> +3.7042189e+02 </wgt>
<wgt id='32'> +3.6346417e+02 </wgt>
<wgt id='33'> +4.4309446e+02 </wgt>
<wgt id='34'> +3.6344717e+02 </wgt>
<wgt id='35'> +4.2550579e+02 </wgt>
<wgt id='36'> +3.4973356e+02 </wgt>
<wgt id='37'> +3.4301375e+02 </wgt>
<wgt id='38'> +4.2550579e+02 </wgt>
<wgt id='39'> +3.4299751e+02 </wgt>
<wgt id='40'> +4.0156457e+02 </wgt>
<wgt id='41'> +3.2979861e+02 </wgt>
<wgt id='42'> +3.2344690e+02 </wgt>
<wgt id='43'> +4.0156458e+02 </wgt>
<wgt id='44'> +3.2343156e+02 </wgt>
<wgt id='45'> +5.0481800e+02 </wgt>
<wgt id='46'> +5.0226583e+02 </wgt>
<wgt id='47'> +5.2139946e+02 </wgt>
<wgt id='48'> +5.0475370e+02 </wgt>
<wgt id='49'> +5.0409184e+02 </wgt>
<wgt id='50'> +5.8157602e+02 </wgt>
<wgt id='51'> +4.9518160e+02 </wgt>
<wgt id='52'> +5.0114457e+02 </wgt>
<wgt id='53'> +5.1314061e+02 </wgt>
<wgt id='54'> +5.0763652e+02 </wgt>
<wgt id='55'> +4.5143045e+02 </wgt>
<wgt id='56'> +4.7300672e+02 </wgt>
<wgt id='57'> +4.9101711e+02 </wgt>
<wgt id='58'> +5.1061496e+02 </wgt>
<wgt id='59'> +4.9403039e+02 </wgt>
<wgt id='60'> +4.8131174e+02 </wgt>
<wgt id='61'> +4.9810337e+02 </wgt>
<wgt id='62'> +4.9786290e+02 </wgt>
<wgt id='63'> +5.0529808e+02 </wgt>
<wgt id='64'> +5.0267629e+02 </wgt>
<wgt id='65'> +5.9600307e+02 </wgt>
<wgt id='66'> +4.9246532e+02 </wgt>
<wgt id='67'> +5.0941301e+02 </wgt>
<wgt id='68'> +5.3710996e+02 </wgt>
<wgt id='69'> +4.8951836e+02 </wgt>
<wgt id='70'> +4.9701346e+02 </wgt>
<wgt id='71'> +5.1445522e+02 </wgt>
<wgt id='72'> +4.9506935e+02 </wgt>
<wgt id='73'> +4.9953260e+02 </wgt>
<wgt id='74'> +5.1672431e+02 </wgt>
<wgt id='75'> +5.1534044e+02 </wgt>
<wgt id='76'> +4.9058625e+02 </wgt>
<wgt id='77'> +4.8465266e+02 </wgt>
<wgt id='78'> +5.0853301e+02 </wgt>
<wgt id='79'> +4.8249964e+02 </wgt>
<wgt id='80'> +5.0175234e+02 </wgt>
<wgt id='81'> +4.9662325e+02 </wgt>
<wgt id='82'> +5.2038610e+02 </wgt>
<wgt id='83'> +5.1413667e+02 </wgt>
<wgt id='84'> +5.5313187e+02 </wgt>
<wgt id='85'> +5.3147312e+02 </wgt>
<wgt id='86'> +4.9998519e+02 </wgt>
<wgt id='87'> +5.0379314e+02 </wgt>
<wgt id='88'> +5.1306438e+02 </wgt>
<wgt id='89'> +5.1540291e+02 </wgt>
<wgt id='90'> +5.0919311e+02 </wgt>
<wgt id='91'> +5.3811996e+02 </wgt>
<wgt id='92'> +4.6917841e+02 </wgt>
<wgt id='93'> +4.9469019e+02 </wgt>
<wgt id='94'> +5.0416109e+02 </wgt>
<wgt id='95'> +4.8502543e+02 </wgt>
<wgt id='96'> +5.4214766e+02 </wgt>
<wgt id='97'> +5.1438715e+02 </wgt>
<wgt id='98'> +4.8092368e+02 </wgt>
<wgt id='99'> +4.9149694e+02 </wgt>
<wgt id='100'> +5.0580584e+02 </wgt>
<wgt id='101'> +5.2418289e+02 </wgt>
<wgt id='102'> +4.8543467e+02 </wgt>
<wgt id='103'> +5.4569366e+02 </wgt>
<wgt id='104'> +5.0269109e+02 </wgt>
<wgt id='105'> +5.2631369e+02 </wgt>
<wgt id='106'> +4.6887312e+02 </wgt>
<wgt id='107'> +5.0329478e+02 </wgt>
<wgt id='108'> +4.5713560e+02 </wgt>
<wgt id='109'> +4.7698478e+02 </wgt>
<wgt id='110'> +5.0659181e+02 </wgt>
<wgt id='111'> +4.9323671e+02 </wgt>
<wgt id='112'> +4.8459584e+02 </wgt>
<wgt id='113'> +4.6574603e+02 </wgt>
<wgt id='114'> +5.0814572e+02 </wgt>
<wgt id='115'> +5.1133246e+02 </wgt>
<wgt id='116'> +5.0029821e+02 </wgt>
<wgt id='117'> +5.1353858e+02 </wgt>
<wgt id='118'> +5.1374371e+02 </wgt>
<wgt id='119'> +4.8646802e+02 </wgt>
<wgt id='120'> +5.0639642e+02 </wgt>
<wgt id='121'> +4.9177262e+02 </wgt>
<wgt id='122'> +4.9877153e+02 </wgt>
<wgt id='123'> +5.1054573e+02 </wgt>
<wgt id='124'> +5.3378612e+02 </wgt>
<wgt id='125'> +5.3541415e+02 </wgt>
<wgt id='126'> +5.2272393e+02 </wgt>
<wgt id='127'> +5.1831657e+02 </wgt>
<wgt id='128'> +4.7192714e+02 </wgt>
<wgt id='129'> +5.6963602e+02 </wgt>
<wgt id='130'> +5.0846911e+02 </wgt>
<wgt id='131'> +5.4092210e+02 </wgt>
<wgt id='132'> +4.9561878e+02 </wgt>
<wgt id='133'> +4.9821590e+02 </wgt>
<wgt id='134'> +4.7403664e+02 </wgt>
<wgt id='135'> +5.1777175e+02 </wgt>
<wgt id='136'> +4.8088952e+02 </wgt>
<wgt id='137'> +4.7454660e+02 </wgt>
<wgt id='138'> +4.5630370e+02 </wgt>
<wgt id='139'> +5.1274379e+02 </wgt>
<wgt id='140'> +5.3845194e+02 </wgt>
<wgt id='141'> +5.0310509e+02 </wgt>
<wgt id='142'> +5.1249770e+02 </wgt>
<wgt id='143'> +4.9839857e+02 </wgt>
<wgt id='144'> +5.0645454e+02 </wgt>
<wgt id='145'> +5.0590852e+02 </wgt>
</rwgt>
</event>
<event>
 4      1 +5.0481800e+02 1.75426600e+02 7.54677100e-03 1.17230400e-01
       21 -1    0    0  503  502 +0.0000000000e+00 +0.0000000000e+00 +6.7808115278e+01 6.7808115278e+01 0.0000000000e+00 0.0000e+00 -1.0000e+00
       21 -1    0    0  501  503 -0.0000000000e+00 -0.0000000000e+00 -4.5578557407e+02 4.5578557407e+02 0.0000000000e+00 0.0000e+00 -1.0000e+00
        6  1    1    2  501    0 +2.8005235444e+01 -7.8222769994e+00 -2.1106418642e+02 2.7444958010e+02 1.7300000000e+02 0.0000e+00 -1.0000e+00
       -6  1    1    2    0  502 -2.8005235444e+01 +7.8222769994e+00 -1.7691327237e+02 2.4914410925e+02 1.7300000000e+02 0.0000e+00 -1.0000e+00
<mgrwt>
<rscale>  2 0.17542657E+03</rscale>
<asrwt>0</asrwt>
<pdfrwt beam="1">  1       21 0.10432018E-01 0.17542657E+03</pdfrwt>
<pdfrwt beam="2">  1       21 0.70120855E-01 0.17542657E+03</pdfrwt>
<totfact> 0.13982038E+05</totfact>
</mgrwt>
<rwgt>
<wgt id='1'> +6.4230911e+02 </wgt>
<wgt id='2'> +8.6687945e+02 </wgt>
<wgt id='3'> +5.0481800e+02 </wgt>
<wgt id='4'> +6.4230912e+02 </wgt>
<wgt id='5'> +5.0445527e+02 </wgt>
<wgt id='6'> +6.2220162e+02 </wgt>
<wgt id='7'> +8.5155993e+02 </wgt>
<wgt id='8'> +4.7898362e+02 </wgt>
<wgt id='9'> +6.2220162e+02 </wgt>
<wgt id='10'> +4.7862356e+02 </wgt>
<wgt id='11'> +5.9036006e+02 </wgt>
<wgt id='12'> +8.2696173e+02 </wgt>
<wgt id='13'> +4.5324684e+02 </wgt>
<wgt id='14'> +5.9036006e+02 </wgt>
<wgt id='15'> +4.5290447e+02 </wgt>
<wgt id='16'> +5.2113204e+02 </wgt>
<wgt id='17'> +6.8238529e+02 </wgt>
<wgt id='18'> +4.2379317e+02 </wgt>
<wgt id='19'> +5.2113204e+02 </wgt>
<wgt id='20'> +4.2351895e+02 </wgt>
<wgt id='21'> +6.7032616e+02 </wgt>
<wgt id='22'> +4.0210528e+02 </wgt>
<wgt id='23'> +5.0481800e+02 </wgt>
<wgt id='24'> +4.0183175e+02 </wgt>
<wgt id='25'> +4.7898362e+02 </wgt>
<wgt id='26'> +6.5096309e+02 </wgt>
<wgt id='27'> +3.8049934e+02 </wgt>
<wgt id='28'> +4.7898362e+02 </wgt>
<wgt id='29'> +3.8023911e+02 </wgt>
<wgt id='30'> +4.3748876e+02 </wgt>
<wgt id='31'> +5.5100289e+02 </wgt>
<wgt id='32'> +3.6107770e+02 </wgt>
<wgt id='33'> +4.3748876e+02 </wgt>
<wgt id='34'> +3.6085829e+02 </wgt>
<wgt id='35'> +4.2379317e+02 </wgt>
<wgt id='36'> +5.4126556e+02 </wgt>
<wgt id='37'> +3.4259932e+02 </wgt>
<wgt id='38'> +4.2379317e+02 </wgt>
<wgt id='39'> +3.4237977e+02 </wgt>
<wgt id='40'> +4.0210528e+02 </wgt>
<wgt id='41'> +5.2563054e+02 </wgt>
<wgt id='42'> +3.2419075e+02 </wgt>
<wgt id='43'> +4.0210528e+02 </wgt>
<wgt id='44'> +3.2398181e+02 </wgt>
<wgt id='45'> +5.0481800e+02 </wgt>
<wgt id='46'> +5.0700823e+02 </wgt>
<wgt id='47'> +5.1831086e+02 </wgt>
<wgt id='48'> +5.0563300e+02 </wgt>
<wgt id='49'> +5.0213527e+02 </wgt>
<wgt id='50'> +5.8019508e+02 </wgt>
<wgt id='51'> +4.9496850e+02 </wgt>
<wgt id='52'> +5.0386087e+02 </wgt>
<wgt id='53'> +5.0562570e+02 </wgt>
<wgt id='54'> +5.0873383e+02 </wgt>
<wgt id='55'> +4.6548023e+02 </wgt>
<wgt id='56'> +4.7037085e+02 </wgt>
<wgt id='57'> +4.9852618e+02 </wgt>
<wgt id='58'> +5.0677743e+02 </wgt>
<wgt id='59'> +5.0731473e+02 </wgt>
<wgt id='60'> +4.9425757e+02 </wgt>
<wgt id='61'> +4.7548387e+02 </wgt>
<wgt id='62'> +4.9740974e+02 </wgt>
<wgt id='63'> +5.0565881e+02 </wgt>
<wgt id='64'> +4.9972414e+02 </wgt>
<wgt id='65'> +5.7326220e+02 </wgt>
<wgt id='66'> +4.9389121e+02 </wgt>
<wgt id='67'> +5.0863555e+02 </wgt>
<wgt id='68'> +5.4271351e+02 </wgt>
<wgt id='69'> +4.9241301e+02 </wgt>
<wgt id='70'> +4.9811359e+02 </wgt>
<wgt id='71'> +5.1298167e+02 </wgt>
<wgt id='72'> +4.9583185e+02 </wgt>
<wgt id='73'> +4.9761518e+02 </wgt>
<wgt id='74'> +5.2173920e+02 </wgt>
<wgt id='75'> +5.1393317e+02 </wgt>
<wgt id='76'> +4.9499659e+02 </wgt>
<wgt id='77'> +4.9059139e+02 </wgt>
<wgt id='78'> +4.9867481e+02 </wgt>
<wgt id='79'> +4.9033725e+02 </wgt>
<wgt id='80'> +4.9840935e+02 </wgt>
<wgt id='81'> +4.9700678e+02 </wgt>
<wgt id='82'> +5.1065622e+02 </wgt>
<wgt id='83'> +5.1028891e+02 </wgt>
<wgt id='84'> +5.4396107e+02 </wgt>
<wgt id='85'> +5.2304408e+02 </wgt>
<wgt id='86'> +5.0171093e+02 </wgt>
<wgt id='87'> +5.0582882e+02 </wgt>
<wgt id='88'> +5.0810850e+02 </wgt>
<wgt id='89'> +5.1478282e+02 </wgt>
<wgt id='90'> +5.1279449e+02 </wgt>
<wgt id='91'> +5.2866206e+02 </wgt>
<wgt id='92'> +4.7137626e+02 </wgt>
<wgt id='93'> +4.9802941e+02 </wgt>
<wgt id='94'> +5.0057962e+02 </wgt>
<wgt id='95'> +4.9210969e+02 </wgt>
<wgt id='96'> +5.3707566e+02 </wgt>
<wgt id='97'> +5.0852001e+02 </wgt>
<wgt id='98'> +4.8633948e+02 </wgt>
<wgt id='99'> +4.8899171e+02 </wgt>
<wgt id='100'> +4.9535962e+02 </wgt>
<wgt id='101'> +5.3501166e+02 </wgt>
<wgt id='102'> +4.9794598e+02 </wgt>
<wgt id='103'> +5.4296936e+02 </wgt>
<wgt id='104'> +5.0311647e+02 </wgt>
<wgt id='105'> +5.2454915e+02 </wgt>
<wgt id='106'> +4.6941883e+02 </wgt>
<wgt id='107'> +4.9632482e+02 </wgt>
<wgt id='108'> +4.5570171e+02 </wgt>
<wgt id='109'> +4.7869289e+02 </wgt>
<wgt id='110'> +5.0588756e+02 </wgt>
<wgt id='111'> +4.9316263e+02 </wgt>
<wgt id='112'> +4.8228430e+02 </wgt>
<wgt id='113'> +4.6916527e+02 </wgt>
<wgt id='114'> +5.0209313e+02 </wgt>
<wgt id='115'> +4.9491481e+02 </wgt>
<wgt id='116'> +5.0693517e+02 </wgt>
<wgt id='117'> +5.0614361e+02 </wgt>
<wgt id='118'> +5.1836774e+02 </wgt>
<wgt id='119'> +4.9035802e+02 </wgt>
<wgt id='120'> +4.9694501e+02 </wgt>
<wgt id='121'> +4.9541185e+02 </wgt>
<wgt id='122'> +4.9981539e+02 </wgt>
<wgt id='123'> +5.0762204e+02 </wgt>
<wgt id='124'> +5.4054755e+02 </wgt>
<wgt id='125'> +5.4313494e+02 </wgt>
<wgt id='126'> +5.1976647e+02 </wgt>
<wgt id='127'> +5.1742670e+02 </wgt>
<wgt id='128'> +4.6643512e+02 </wgt>
<wgt id='129'> +5.6508110e+02 </wgt>
<wgt id='130'> +5.0175348e+02 </wgt>
<wgt id='131'> +5.3361419e+02 </wgt>
<wgt id='132'> +5.1164030e+02 </wgt>
<wgt id='133'> +5.0567270e+02 </wgt>
<wgt id='134'> +4.8314255e+02 </wgt>
<wgt id='135'> +5.1529487e+02 </wgt>
<wgt id='136'> +4.9865151e+02 </wgt>
<wgt id='137'> +4.7783804e+02 </wgt>
<wgt id='138'> +4.6178096e+02 </wgt>
<wgt id='139'> +5.1566020e+02 </wgt>
<wgt id='140'> +5.2943913e+02 </wgt>
<wgt id='141'> +5.0528017e+02 </wgt>
<wgt id='142'> +4.9859175e+02 </wgt>
<wgt id='143'> +5.0699867e+02 </wgt>
<wgt id='144'> +5.0420715e+02 </wgt>
<wgt id='145'> +5.0460437e+02 </wgt>
</rwgt>
</event>
<event>
 4      1 +5.0481800e+02 1.79969400e+02 7.54677100e-03 1.16783300e-01
       21 -1    0    0  501  502 +0.0000000000e+00 +0.0000000000e+00 +7.5840109309e+02 7.5840109309e+02 0.0000000000e+00 0.0000e+00 -1.0000e+00
       21 -1    0    0  502  503 -0.0000000000e+00 -0.0000000000e+00 -1.4125081210e+02 1.4125081210e+02 0.0000000000e+00 0.0000e+00 -1.0000e+00
        6  1    1    2  501    0 +6.9647012421e+00 +4.9106759473e+01 +6.8429475630e+02 7.0756504605e+02 1.7300000000e+02 0.0000e+00 -1.0000e+00
       -6  1    1    2    0  503 -6.9647012421e+00 -4.9106759473e+01 -6.7144475319e+01 1.9208685914e+02 1.7300000000e+02 0.0000e+00 -1.0000e+00
<mgrwt>
<rscale>  2 0.17996939E+03</rscale>
<asrwt>0</asrwt>
<pdfrwt beam="1">  1       21 0.11667709E+00 0.17996939E+03</pdfrwt>
<pdfrwt beam="2">  1       21 0.21730895E-01 0.17996939E+03</pdfrwt>
<totfact> 0.11281048E+04</totfact>
</mgrwt>
<rwgt>
<wgt id='1'> +6.7475048e+02 </wgt>
<wgt id='2'> +7.0026478e+02 </wgt>
<wgt id='3'> +5.0481800e+02 </wgt>
<wgt id='4'> +6.7475048e+02 </wgt>
<wgt id='5'> +3.9903047e+02 </wgt>
<wgt id='6'> +6.2143636e+02 </wgt>
<wgt id='7'> +6.4572591e+02 </wgt>
<wgt id='8'> +4.5803330e+02 </wgt>
<wgt id='9'> +6.2143637e+02 </wgt>
<wgt id='10'> +3.6262400e+02 </wgt>
<wgt id='11'> +5.6384389e+02 </wgt>
<wgt id='12'> +5.8638416e+02 </wgt>
<wgt id='13'> +4.1640195e+02 </wgt>
<wgt id='14'> +5.6384390e+02 </wgt>
<wgt id='15'> +3.3050360e+02 </wgt>
<wgt id='16'> +5.4812722e+02 </wgt>
<wgt id='17'> +5.6669971e+02 </wgt>
<wgt id='18'> +4.2414770e+02 </wgt>
<wgt id='19'> +5.4812722e+02 </wgt>
<wgt id='20'> +3.3953685e+02 </wgt>
<wgt id='21'> +5.2256331e+02 </wgt>
<wgt id='22'> +3.8483923e+02 </wgt>
<wgt id='23'> +5.0481800e+02 </wgt>
<wgt id='24'> +3.0855842e+02 </wgt>
<wgt id='25'> +4.5803330e+02 </wgt>
<wgt id='26'> +4.7454012e+02 </wgt>
<wgt id='27'> +3.4986061e+02 </wgt>
<wgt id='28'> +4.5803330e+02 </wgt>
<wgt id='29'> +2.8122702e+02 </wgt>
<wgt id='30'> +4.6053608e+02 </wgt>
<wgt id='31'> +4.7472229e+02 </wgt>
<wgt id='32'> +3.6154972e+02 </wgt>
<wgt id='33'> +4.6053608e+02 </wgt>
<wgt id='34'> +2.9242094e+02 </wgt>
<wgt id='35'> +4.2414770e+02 </wgt>
<wgt id='36'> +4.3774939e+02 </wgt>
<wgt id='37'> +3.2804260e+02 </wgt>
<wgt id='38'> +4.2414770e+02 </wgt>
<wgt id='39'> +2.6574124e+02 </wgt>
<wgt id='40'> +3.8483923e+02 </wgt>
<wgt id='41'> +3.9752053e+02 </wgt>
<wgt id='42'> +2.9822631e+02 </wgt>
<wgt id='43'> +3.8483923e+02 </wgt>
<wgt id='44'> +2.4220249e+02 </wgt>
<wgt id='45'> +5.0481800e+02 </wgt>
<wgt id='46'> +5.1942560e+02 </wgt>
<wgt id='47'> +5.2338168e+02 </wgt>
<wgt id='48'> +5.0973915e+02 </wgt>
<wgt id='49'> +4.9182654e+02 </wgt>
<wgt id='50'> +6.1741632e+02 </wgt>
<wgt id='51'> +4.8892817e+02 </wgt>
<wgt id='52'> +5.0082080e+02 </wgt>
<wgt id='53'> +4.9786805e+02 </wgt>
<wgt id='54'> +5.1738799e+02 </wgt>
<wgt id='55'> +4.8357567e+02 </wgt>
<wgt id='56'> +4.5760188e+02 </wgt>
<wgt id='57'> +5.1014819e+02 </wgt>
<wgt id='58'> +4.8551987e+02 </wgt>
<wgt id='59'> +5.2933607e+02 </wgt>
<wgt id='60'> +5.0354333e+02 </wgt>
<wgt id='61'> +4.3597692e+02 </wgt>
<wgt id='62'> +4.9148669e+02 </wgt>
<wgt id='63'> +5.1027037e+02 </wgt>
<wgt id='64'> +4.9455560e+02 </wgt>
<wgt id='65'> +5.5712308e+02 </wgt>
<wgt id='66'> +4.9746510e+02 </wgt>
<wgt id='67'> +5.0755321e+02 </wgt>
<wgt id='68'> +5.6782791e+02 </wgt>
<wgt id='69'> +5.1313267e+02 </wgt>
<wgt id='70'> +5.0099892e+02 </wgt>
<wgt id='71'> +5.0491996e+02 </wgt>
<wgt id='72'> +4.7601090e+02 </wgt>
<wgt id='73'> +4.8134974e+02 </wgt>
<wgt id='74'> +5.4326525e+02 </wgt>
<wgt id='75'> +5.2128303e+02 </wgt>
<wgt id='76'> +4.9957894e+02 </wgt>
<wgt id='77'> +4.9332418e+02 </wgt>
<wgt id='78'> +4.7328651e+02 </wgt>
<wgt id='79'> +5.0351566e+02 </wgt>
<wgt id='80'> +4.8372288e+02 </wgt>
<wgt id='81'> +4.9597870e+02 </wgt>
<wgt id='82'> +4.9352380e+02 </wgt>
<wgt id='83'> +5.1200108e+02 </wgt>
<wgt id='84'> +5.4174517e+02 </wgt>
<wgt id='85'> +5.0844616e+02 </wgt>
<wgt id='86'> +5.1195901e+02 </wgt>
<wgt id='87'> +5.0827611e+02 </wgt>
<wgt id='88'> +5.0695712e+02 </wgt>
<wgt id='89'> +5.0311584e+02 </wgt>
<wgt id='90'> +5.1027187e+02 </wgt>
<wgt id='91'> +5.0780526e+02 </wgt>
<wgt id='92'> +4.5332392e+02 </wgt>
<wgt id='93'> +5.0422240e+02 </wgt>
<wgt id='94'> +4.8385123e+02 </wgt>
<wgt id='95'> +5.0125147e+02 </wgt>
<wgt id='96'> +5.4565316e+02 </wgt>
<wgt id='97'> +4.9244103e+02 </wgt>
<wgt id='98'> +4.9891164e+02 </wgt>
<wgt id='99'> +4.6838307e+02 </wgt>
<wgt id='100'> +4.5259668e+02 </wgt>
<wgt id='101'> +5.6965193e+02 </wgt>
<wgt id='102'> +5.3051295e+02 </wgt>
<wgt id='103'> +5.4073279e+02 </wgt>
<wgt id='104'> +5.1590577e+02 </wgt>
<wgt id='105'> +5.1956279e+02 </wgt>
<wgt id='106'> +4.5653375e+02 </wgt>
<wgt id='107'> +4.7554260e+02 </wgt>
<wgt id='108'> +4.4148670e+02 </wgt>
<wgt id='109'> +4.7449025e+02 </wgt>
<wgt id='110'> +4.9419110e+02 </wgt>
<wgt id='111'> +4.8939958e+02 </wgt>
<wgt id='112'> +4.8168328e+02 </wgt>
<wgt id='113'> +4.7014679e+02 </wgt>
<wgt id='114'> +4.9554415e+02 </wgt>
<wgt id='115'> +4.7405257e+02 </wgt>
<wgt id='116'> +5.3165285e+02 </wgt>
<wgt id='117'> +4.9768473e+02 </wgt>
<wgt id='118'> +5.3376960e+02 </wgt>
<wgt id='119'> +4.9813736e+02 </wgt>
<wgt id='120'> +4.9580183e+02 </wgt>
<wgt id='121'> +4.9450912e+02 </wgt>
<wgt id='122'> +4.9789551e+02 </wgt>
<wgt id='123'> +5.0748491e+02 </wgt>
<wgt id='124'> +5.6834264e+02 </wgt>
<wgt id='125'> +5.7937466e+02 </wgt>
<wgt id='126'> +5.1998113e+02 </wgt>
<wgt id='127'> +5.1582914e+02 </wgt>
<wgt id='128'> +4.5836504e+02 </wgt>
<wgt id='129'> +5.6458550e+02 </wgt>
<wgt id='130'> +4.9953339e+02 </wgt>
<wgt id='131'> +5.1942966e+02 </wgt>
<wgt id='132'> +5.3523342e+02 </wgt>
<wgt id='133'> +5.2645604e+02 </wgt>
<wgt id='134'> +4.9403714e+02 </wgt>
<wgt id='135'> +5.0830849e+02 </wgt>
<wgt id='136'> +5.3242325e+02 </wgt>
<wgt id='137'> +4.8862349e+02 </wgt>
<wgt id='138'> +4.8217272e+02 </wgt>
<wgt id='139'> +5.2207499e+02 </wgt>
<wgt id='140'> +5.1581532e+02 </wgt>
<wgt id='141'> +5.2186018e+02 </wgt>
<wgt id='142'> +4.5705995e+02 </wgt>
<wgt id='143'> +5.1572794e+02 </wgt>
<wgt id='144'> +4.8618310e+02 </wgt>
<wgt id='145'> +4.9556674e+02 </wgt>
</rwgt>
</event>
<event>
 4      1 +5.0481800e+02 1.74904700e+02 7.54677100e-03 1.17282700e-01
       21 -1    0    0  501  502 +0.0000000000e+00 +0.0000000000e+00 +6.0234579905e+01 6.0234579905e+01 0.0000000000e+00 0.0000e+00 1.0000e+00
       21 -1    0    0  502  503 -0.0000000000e+00 -0.0000000000e+00 -8.1839764183e+02 8.1839764183e+02 0.0000000000e+00 0.0000e+00 1.0000e+00
        6  1    1    2  501    0 +7.4229369861e+00 -2.4648486033e+01 -1.0847301544e+02 2.0581069685e+02 1.7300000000e+02 0.0000e+00 1.0000e+00
       -6  1    1    2    0  503 -7.4229369861e+00 +2.4648486033e+01 -6.4969004648e+02 6.7282152488e+02 1.7300000000e+02 0.0000e+00 1.0000e+00
<mgrwt>
<rscale>  2 0.17490468E+03</rscale>
<asrwt>0</asrwt>
<pdfrwt beam="1">  1       21 0.92668592E-02 0.17490468E+03</pdfrwt>
<pdfrwt beam="2">  1       21 0.12590732E+00 0.17490468E+03</pdfrwt>
<totfact> 0.43897687E+04</totfact>
</mgrwt>
<rwgt>
<wgt id='1'> +6.5991031e+02 </wgt>
<wgt id='2'> +9.4136926e+02 </wgt>
<wgt id='3'> +5.0481800e+02 </wgt>
<wgt id='4'> +6.5991031e+02 </wgt>
<wgt id='5'> +4.6211263e+02 </wgt>
<wgt id='6'> +6.2228738e+02 </wgt>
<wgt id='7'> +8.9743723e+02 </wgt>
<wgt id='8'> +4.6745030e+02 </wgt>
<wgt id='9'> +6.2228738e+02 </wgt>
<wgt id='10'> +4.2748287e+02 </wgt>
<wgt id='11'> +5.7622435e+02 </wgt>
<wgt id='12'> +8.4830679e+02 </wgt>
<wgt id='13'> +4.3256750e+02 </wgt>
<wgt id='14'> +5.7622435e+02 </wgt>
<wgt id='15'> +3.9570336e+02 </wgt>
<wgt id='16'> +5.3533884e+02 </wgt>
<wgt id='17'> +7.3951456e+02 </wgt>
<wgt id='18'> +4.2375057e+02 </wgt>
<wgt id='19'> +5.3533883e+02 </wgt>
<wgt id='20'> +3.9024103e+02 </wgt>
<wgt id='21'> +7.0500273e+02 </wgt>
<wgt id='22'> +3.9238365e+02 </wgt>
<wgt id='23'> +5.0481800e+02 </wgt>
<wgt id='24'> +3.6099718e+02 </wgt>
<wgt id='25'> +4.6745030e+02 </wgt>
<wgt id='26'> +6.6640717e+02 </wgt>
<wgt id='27'> +3.6310259e+02 </wgt>
<wgt id='28'> +4.6745030e+02 </wgt>
<wgt id='29'> +3.3416029e+02 </wgt>
<wgt id='30'> +4.4937014e+02 </wgt>
<wgt id='31'> +5.9614517e+02 </wgt>
<wgt id='32'> +3.6102149e+02 </wgt>
<wgt id='33'> +4.4937014e+02 </wgt>
<wgt id='34'> +3.3390405e+02 </wgt>
<wgt id='35'> +4.2375057e+02 </wgt>
<wgt id='36'> +5.6832413e+02 </wgt>
<wgt id='37'> +3.3429791e+02 </wgt>
<wgt id='38'> +4.2375057e+02 </wgt>
<wgt id='39'> +3.0888198e+02 </wgt>
<wgt id='40'> +3.9238366e+02 </wgt>
<wgt id='41'> +5.3721108e+02 </wgt>
<wgt id='42'> +3.0935141e+02 </wgt>
<wgt id='43'> +3.9238365e+02 </wgt>
<wgt id='44'> +2.8591938e+02 </wgt>
<wgt id='45'> +5.0481800e+02 </wgt>
<wgt id='46'> +5.1721891e+02 </wgt>
<wgt id='47'> +5.1709620e+02 </wgt>
<wgt id='48'> +5.0640321e+02 </wgt>
<wgt id='49'> +4.8947515e+02 </wgt>
<wgt id='50'> +5.9559982e+02 </wgt>
<wgt id='51'> +4.8811081e+02 </wgt>
<wgt id='52'> +4.9955573e+02 </wgt>
<wgt id='53'> +4.9733847e+02 </wgt>
<wgt id='54'> +5.1935375e+02 </wgt>
<wgt id='55'> +5.0106672e+02 </wgt>
<wgt id='56'> +4.6543307e+02 </wgt>
<wgt id='57'> +5.1704320e+02 </wgt>
<wgt id='58'> +4.8633192e+02 </wgt>
<wgt id='59'> +5.3356566e+02 </wgt>
<wgt id='60'> +5.0824557e+02 </wgt>
<wgt id='61'> +4.3880673e+02 </wgt>
<wgt id='62'> +4.8885123e+02 </wgt>
<wgt id='63'> +5.1245934e+02 </wgt>
<wgt id='64'> +4.9891822e+02 </wgt>
<wgt id='65'> +5.3357039e+02 </wgt>
<wgt id='66'> +4.9873315e+02 </wgt>
<wgt id='67'> +5.0700918e+02 </wgt>
<wgt id='68'> +5.6585948e+02 </wgt>
<wgt id='69'> +5.1027796e+02 </wgt>
<wgt id='70'> +5.0569237e+02 </wgt>
<wgt id='71'> +5.0147663e+02 </wgt>
<wgt id='72'> +4.8543265e+02 </wgt>
<wgt id='73'> +4.8138076e+02 </wgt>
<wgt id='74'> +5.4190697e+02 </wgt>
<wgt id='75'> +5.1985780e+02 </wgt>
<wgt id='76'> +5.0547635e+02 </wgt>
<wgt id='77'> +4.9371688e+02 </wgt>
<wgt id='78'> +4.7065375e+02 </wgt>
<wgt id='79'> +5.0852553e+02 </wgt>
<wgt id='80'> +4.8184054e+02 </wgt>
<wgt id='81'> +5.0049080e+02 </wgt>
<wgt id='82'> +4.9019719e+02 </wgt>
<wgt id='83'> +5.0503895e+02 </wgt>
<wgt id='84'> +5.2785109e+02 </wgt>
<wgt id='85'> +4.9913687e+02 </wgt>
<wgt id='86'> +5.1076274e+02 </wgt>
<wgt id='87'> +5.0705668e+02 </wgt>
<wgt id='88'> +5.0050454e+02 </wgt>
<wgt id='89'> +4.9538364e+02 </wgt>
<wgt id='90'> +5.0771471e+02 </wgt>
<wgt id='91'> +4.9824794e+02 </wgt>
<wgt id='92'> +4.6689615e+02 </wgt>
<wgt id='93'> +5.0411114e+02 </wgt>
<wgt id='94'> +4.8408517e+02 </wgt>
<wgt id='95'> +5.1074765e+02 </wgt>
<wgt id='96'> +5.3287748e+02 </wgt>
<wgt id='97'> +4.8935007e+02 </wgt>
<wgt id='98'> +5.0421525e+02 </wgt>
<wgt id='99'> +4.6692604e+02 </wgt>
<wgt id='100'> +4.5094010e+02 </wgt>
<wgt id='101'> +5.6531863e+02 </wgt>
<wgt id='102'> +5.3195491e+02 </wgt>
<wgt id='103'> +5.2911186e+02 </wgt>
<wgt id='104'> +5.1461850e+02 </wgt>
<wgt id='105'> +5.2115275e+02 </wgt>
<wgt id='106'> +4.6927362e+02 </wgt>
<wgt id='107'> +4.8100935e+02 </wgt>
<wgt id='108'> +4.5336949e+02 </wgt>
<wgt id='109'> +4.8395736e+02 </wgt>
<wgt id='110'> +4.9391840e+02 </wgt>
<wgt id='111'> +4.9293224e+02 </wgt>
<wgt id='112'> +4.9009597e+02 </wgt>
<wgt id='113'> +4.8187849e+02 </wgt>
<wgt id='114'> +5.0262974e+02 </wgt>
<wgt id='115'> +4.7205434e+02 </wgt>
<wgt id='116'> +5.2899826e+02 </wgt>
<wgt id='117'> +4.9567459e+02 </wgt>
<wgt id='118'> +5.2812517e+02 </wgt>
<wgt id='119'> +5.0787757e+02 </wgt>
<wgt id='120'> +4.9697880e+02 </wgt>
<wgt id='121'> +5.0074296e+02 </wgt>
<wgt id='122'> +4.9946262e+02 </wgt>
<wgt id='123'> +5.0181807e+02 </wgt>
<wgt id='124'> +5.6168092e+02 </wgt>
<wgt id='125'> +5.7727957e+02 </wgt>
<wgt id='126'> +5.1267166e+02 </wgt>
<wgt id='127'> +5.0986628e+02 </wgt>
<wgt id='128'> +4.6308930e+02 </wgt>
<wgt id='129'> +5.5297256e+02 </wgt>
<wgt id='130'> +4.9198236e+02 </wgt>
<wgt id='131'> +5.1051757e+02 </wgt>
<wgt id='132'> +5.4079238e+02 </wgt>
<wgt id='133'> +5.2697347e+02 </wgt>
<wgt id='134'> +5.0216954e+02 </wgt>
<wgt id='135'> +5.0456420e+02 </wgt>
<wgt id='136'> +5.4397082e+02 </wgt>
<wgt id='137'> +4.9156371e+02 </wgt>
<wgt id='138'> +4.8268495e+02 </wgt>
<wgt id='139'> +5.2039549e+02 </wgt>
<wgt id='140'> +5.1091257e+02 </wgt>
<wgt id='141'> +5.2420072e+02 </wgt>
<wgt id='142'> +4.4976151e+02 </wgt>
<wgt id='143'> +5.1845232e+02 </wgt>
<wgt id='144'> +4.8723389e+02 </wgt>
<wgt id='145'> +4.9185703e+02 </wgt>
</rwgt>
</event>
<event>
 4      1 +5.0481800e+02 2.29189100e+02 7.54677100e-03 1.12721200e-01
       21 -1    0    0  503  502 +0.0000000000e+00 +0.0000000000e+00 +9.5489742999e+01 9.5489742999e+01 0.0000000000e+00 0.0000e+00 -1.0000e+00
       21 -1    0    0  501  503 -0.0000000000e+00 -0.0000000000e+00 -6.0298911611e+02 6.0298911611e+02 0.0000000000e+00 0.0000e+00 1.0000e+00
        6  1    1    2  501    0 -1.2928232441e+02 +7.6712084728e+01 -3.5719365683e+02 4.2439954268e+02 1.7300000000e+02 0.0000e+00 1.0000e+00
       -6  1    1    2    0  502 +1.2928232441e+02 -7.6712084728e+01 -1.5030571628e+02 2.7407931643e+02 1.7300000000e+02 0.0000e+00 1.0000e+00
<mgrwt>
<rscale>  2 0.22918914E+03</rscale>
<asrwt>0</asrwt>
<pdfrwt beam="1">  1       21 0.14690729E-01 0.22918914E+03</pdfrwt>
<pdfrwt beam="2">  1       21 0.92767558E-01 0.22918914E+03</pdfrwt>
<totfact> 0.39159748E+04</totfact>
</mgrwt>
<rwgt>
<wgt id='1'> +6.5391540e+02 </wgt>
<wgt id='2'> +5.5233612e+02 </wgt>
<wgt id='3'> +5.0481800e+02 </wgt>
<wgt id='4'> +6.5391540e+02 </wgt>
<wgt id='5'> +4.9651368e+02 </wgt>
<wgt id='6'> +6.1362915e+02 </wgt>
<wgt id='7'> +5.1268322e+02 </wgt>
<wgt id='8'> +4.6828543e+02 </wgt>
<wgt id='9'> +6.1362914e+02 </wgt>
<wgt id='10'> +4.6059250e+02 </wgt>
<wgt id='11'> +5.6922216e+02 </wgt>
<wgt id='12'> +4.7573817e+02 </wgt>
<wgt id='13'> +4.3467903e+02 </wgt>
<wgt id='14'> +5.6922216e+02 </wgt>
<wgt id='15'> +4.2756779e+02 </wgt>
<wgt id='16'> +5.3796054e+02 </wgt>
<wgt id='17'> +4.6401073e+02 </wgt>
<wgt id='18'> +4.2656270e+02 </wgt>
<wgt id='19'> +5.3796053e+02 </wgt>
<wgt id='20'> +4.1993692e+02 </wgt>
<wgt id='21'> +4.3069882e+02 </wgt>
<wgt id='22'> +3.9569330e+02 </wgt>
<wgt id='23'> +5.0481800e+02 </wgt>
<wgt id='24'> +3.8955582e+02 </wgt>
<wgt id='25'> +4.6828543e+02 </wgt>
<wgt id='26'> +3.9966174e+02 </wgt>
<wgt id='27'> +3.6729646e+02 </wgt>
<wgt id='28'> +4.6828543e+02 </wgt>
<wgt id='29'> +3.6162448e+02 </wgt>
<wgt id='30'> +4.5456759e+02 </wgt>
<wgt id='31'> +3.9549946e+02 </wgt>
<wgt id='32'> +3.6518407e+02 </wgt>
<wgt id='33'> +4.5456759e+02 </wgt>
<wgt id='34'> +3.5979802e+02 </wgt>
<wgt id='35'> +4.2656271e+02 </wgt>
<wgt id='36'> +3.6710606e+02 </wgt>
<wgt id='37'> +3.3875650e+02 </wgt>
<wgt id='38'> +4.2656270e+02 </wgt>
<wgt id='39'> +3.3376778e+02 </wgt>
<wgt id='40'> +3.9569330e+02 </wgt>
<wgt id='41'> +3.4065161e+02 </wgt>
<wgt id='42'> +3.1444571e+02 </wgt>
<wgt id='43'> +3.9569330e+02 </wgt>
<wgt id='44'> +3.0983647e+02 </wgt>
<wgt id='45'> +5.0481800e+02 </wgt>
<wgt id='46'> +5.1401177e+02 </wgt>
<wgt id='47'> +5.2114893e+02 </wgt>
<wgt id='48'> +5.0820739e+02 </wgt>
<wgt id='49'> +4.9708072e+02 </wgt>
<wgt id='50'> +5.9884282e+02 </wgt>
<wgt id='51'> +4.9247555e+02 </wgt>
<wgt id='52'> +5.0280671e+02 </wgt>
<wgt id='53'> +5.0082889e+02 </wgt>
<wgt id='54'> +5.1252106e+02 </wgt>
<wgt id='55'> +4.7524528e+02 </wgt>
<wgt id='56'> +4.6325087e+02 </wgt>
<wgt id='57'> +5.0461330e+02 </wgt>
<wgt id='58'> +4.9538861e+02 </wgt>
<wgt id='59'> +5.1930937e+02 </wgt>
<wgt id='60'> +5.0014158e+02 </wgt>
<wgt id='61'> +4.5168787e+02 </wgt>
<wgt id='62'> +4.9507941e+02 </wgt>
<wgt id='63'> +5.0730869e+02 </wgt>
<wgt id='64'> +4.9596797e+02 </wgt>
<wgt id='65'> +5.6435718e+02 </wgt>
<wgt id='66'> +4.9625862e+02 </wgt>
<wgt id='67'> +5.0803408e+02 </wgt>
<wgt id='68'> +5.5476858e+02 </wgt>
<wgt id='69'> +5.0382378e+02 </wgt>
<wgt id='70'> +4.9923444e+02 </wgt>
<wgt id='71'> +5.0947633e+02 </wgt>
<wgt id='72'> +4.8515644e+02 </wgt>
<wgt id='73'> +4.8939885e+02 </wgt>
<wgt id='74'> +5.3243068e+02 </wgt>
<wgt id='75'> +5.1716786e+02 </wgt>
<wgt id='76'> +4.9753891e+02 </wgt>
<wgt id='77'> +4.9318770e+02 </wgt>
<wgt id='78'> +4.8535003e+02 </wgt>
<wgt id='79'> +4.9762330e+02 </wgt>
<wgt id='80'> +4.9150364e+02 </wgt>
<wgt id='81'> +4.9613653e+02 </wgt>
<wgt id='82'> +5.0079469e+02 </wgt>
<wgt id='83'> +5.1156512e+02 </wgt>
<wgt id='84'> +5.4281256e+02 </wgt>
<wgt id='85'> +5.1526351e+02 </wgt>
<wgt id='86'> +5.0721479e+02 </wgt>
<wgt id='87'> +5.0737327e+02 </wgt>
<wgt id='88'> +5.0822651e+02 </wgt>
<wgt id='89'> +5.0964901e+02 </wgt>
<wgt id='90'> +5.1244501e+02 </wgt>
<wgt id='91'> +5.1812824e+02 </wgt>
<wgt id='92'> +4.6209287e+02 </wgt>
<wgt id='93'> +5.0167530e+02 </wgt>
<wgt id='94'> +4.9194019e+02 </wgt>
<wgt id='95'> +4.9675387e+02 </wgt>
<wgt id='96'> +5.4110087e+02 </wgt>
<wgt id='97'> +5.0026444e+02 </wgt>
<wgt id='98'> +4.9348371e+02 </wgt>
<wgt id='99'> +4.7904340e+02 </wgt>
<wgt id='100'> +4.7330225e+02 </wgt>
<wgt id='101'> +5.5294394e+02 </wgt>
<wgt id='102'> +5.1562911e+02 </wgt>
<wgt id='103'> +5.4186218e+02 </wgt>
<wgt id='104'> +5.0976142e+02 </wgt>
<wgt id='105'> +5.2107490e+02 </wgt>
<wgt id='106'> +4.6237593e+02 </wgt>
<wgt id='107'> +4.8433070e+02 </wgt>
<wgt id='108'> +4.4829891e+02 </wgt>
<wgt id='109'> +4.7616857e+02 </wgt>
<wgt id='110'> +4.9986117e+02 </wgt>
<wgt id='111'> +4.9131133e+02 </wgt>
<wgt id='112'> +4.8053627e+02 </wgt>
<wgt id='113'> +4.6947767e+02 </wgt>
<wgt id='114'> +4.9668149e+02 </wgt>
<wgt id='115'> +4.8331219e+02 </wgt>
<wgt id='116'> +5.2015262e+02 </wgt>
<wgt id='117'> +5.0117906e+02 </wgt>
<wgt id='118'> +5.2688167e+02 </wgt>
<wgt id='119'> +4.9339653e+02 </wgt>
<wgt id='120'> +4.9485758e+02 </wgt>
<wgt id='121'> +4.9459729e+02 </wgt>
<wgt id='122'> +4.9899720e+02 </wgt>
<wgt id='123'> +5.0804568e+02 </wgt>
<wgt id='124'> +5.5478492e+02 </wgt>
<wgt id='125'> +5.6064769e+02 </wgt>
<wgt id='126'> +5.2007180e+02 </wgt>
<wgt id='127'> +5.1693390e+02 </wgt>
<wgt id='128'> +4.6211105e+02 </wgt>
<wgt id='129'> +5.6401436e+02 </wgt>
<wgt id='130'> +5.0173801e+02 </wgt>
<wgt id='131'> +5.2616265e+02 </wgt>
<wgt id='132'> +5.2463784e+02 </wgt>
<wgt id='133'> +5.1661760e+02 </wgt>
<wgt id='134'> +4.8954697e+02 </wgt>
<wgt id='135'> +5.1160371e+02 </wgt>
<wgt id='136'> +5.1624509e+02 </wgt>
<wgt id='137'> +4.8426685e+02 </wgt>
<wgt id='138'> +4.7402698e+02 </wgt>
<wgt id='139'> +5.1885230e+02 </wgt>
<wgt id='140'> +5.2123892e+02 </wgt>
<wgt id='141'> +5.1340445e+02 </wgt>
<wgt id='142'> +4.7811219e+02 </wgt>
<wgt id='143'> +5.1227207e+02 </wgt>
<wgt id='144'> +4.9490591e+02 </wgt>
<wgt id='145'> +5.0100069e+02 </wgt>
</rwgt>
</event>
<event>
 4      1 +5.0481800e+02 2.40683700e+02 7.54677100e-03 1.11933800e-01
       21 -1    0    0  503  502 +0.0000000000e+00 +0.0000000000e+00 +1.7492026114e+02 1.7492026114e+02 0.0000000000e+00 0.0000e+00 -1.0000e+00
       21 -1    0    0  501  503 -0.0000000000e+00 -0.0000000000e+00 -4.8452894014e+02 4.8452894014e+02 0.0000000000e+00 0.0000e+00 1.0000e+00
        6  1    1    2  501    0 +1.6206974093e+02 -4.1630106892e+01 -3.4030412756e+02 4.1681598573e+02 1.7300000000e+02 0.0000e+00 1.0000e+00
       -6  1    1    2    0  502 -1.6206974093e+02 +4.1630106892e+01 +3.0695448561e+01 2.4263321555e+02 1.7300000000e+02 0.0000e+00 -1.0000e+00
<mgrwt>
<rscale>  2 0.24068375E+03</rscale>
<asrwt>0</asrwt>
<pdfrwt beam="1">  1       21 0.26910810E-01 0.24068375E+03</pdfrwt>
<pdfrwt beam="2">  1       21 0.74542913E-01 0.24068375E+03</pdfrwt>
<totfact> 0.20637944E+04</totfact>
</mgrwt>
<rwgt>
<wgt id='1'> +6.5913590e+02 </wgt>
<wgt id='2'> +5.3007036e+02 </wgt>
<wgt id='3'> +5.0481800e+02 </wgt>
<wgt id='4'> +6.5913590e+02 </wgt>
<wgt id='5'> +4.7056163e+02 </wgt>
<wgt id='6'> +6.1206174e+02 </wgt>
<wgt id='7'> +4.8769832e+02 </wgt>
<wgt id='8'> +4.6464556e+02 </wgt>
<wgt id='9'> +6.1206174e+02 </wgt>
<wgt id='10'> +4.3328827e+02 </wgt>
<wgt id='11'> +5.6335505e+02 </wgt>
<wgt id='12'> +4.4947995e+02 </wgt>
<wgt id='13'> +4.2838592e+02 </wgt>
<wgt id='14'> +5.6335505e+02 </wgt>
<wgt id='15'> +3.9969348e+02 </wgt>
<wgt id='16'> +5.4364396e+02 </wgt>
<wgt id='17'> +4.4721202e+02 </wgt>
<wgt id='18'> +4.2698663e+02 </wgt>
<wgt id='19'> +5.4364396e+02 </wgt>
<wgt id='20'> +3.9951245e+02 </wgt>
<wgt id='21'> +4.1146339e+02 </wgt>
<wgt id='22'> +3.9300785e+02 </wgt>
<wgt id='23'> +5.0481800e+02 </wgt>
<wgt id='24'> +3.6786692e+02 </wgt>
<wgt id='25'> +4.6464556e+02 </wgt>
<wgt id='26'> +3.7921916e+02 </wgt>
<wgt id='27'> +3.6233862e+02 </wgt>
<wgt id='28'> +4.6464556e+02 </wgt>
<wgt id='29'> +3.3934454e+02 </wgt>
<wgt id='30'> +4.5982651e+02 </wgt>
<wgt id='31'> +3.8231740e+02 </wgt>
<wgt id='32'> +3.6585729e+02 </wgt>
<wgt id='33'> +4.5982651e+02 </wgt>
<wgt id='34'> +3.4341725e+02 </wgt>
<wgt id='35'> +4.2698662e+02 </wgt>
<wgt id='36'> +3.5175623e+02 </wgt>
<wgt id='37'> +3.3674307e+02 </wgt>
<wgt id='38'> +4.2698663e+02 </wgt>
<wgt id='39'> +3.1621505e+02 </wgt>
<wgt id='40'> +3.9300785e+02 </wgt>
<wgt id='41'> +3.2419093e+02 </wgt>
<wgt id='42'> +3.1046459e+02 </wgt>
<wgt id='43'> +3.9300785e+02 </wgt>
<wgt id='44'> +2.9169747e+02 </wgt>
<wgt id='45'> +5.0481800e+02 </wgt>
<wgt id='46'> +5.1390484e+02 </wgt>
<wgt id='47'> +5.2560234e+02 </wgt>
<wgt id='48'> +5.1082259e+02 </wgt>
<wgt id='49'> +5.0052160e+02 </wgt>
<wgt id='50'> +6.0949103e+02 </wgt>
<wgt id='51'> +4.9400038e+02 </wgt>
<wgt id='52'> +5.0346980e+02 </wgt>
<wgt id='53'> +5.0290777e+02 </wgt>
<wgt id='54'> +5.0988233e+02 </wgt>
<wgt id='55'> +4.5941538e+02 </wgt>
<wgt id='56'> +4.6067225e+02 </wgt>
<wgt id='57'> +4.9665662e+02 </wgt>
<wgt id='58'> +4.9780345e+02 </wgt>
<wgt id='59'> +5.1192303e+02 </wgt>
<wgt id='60'> +4.9526340e+02 </wgt>
<wgt id='61'> +4.6153772e+02 </wgt>
<wgt id='62'> +4.9793587e+02 </wgt>
<wgt id='63'> +5.0591834e+02 </wgt>
<wgt id='64'> +4.9357801e+02 </wgt>
<wgt id='65'> +5.8380253e+02 </wgt>
<wgt id='66'> +4.9521223e+02 </wgt>
<wgt id='67'> +5.0878414e+02 </wgt>
<wgt id='68'> +5.5360522e+02 </wgt>
<wgt id='69'> +5.0401151e+02 </wgt>
<wgt id='70'> +4.9624054e+02 </wgt>
<wgt id='71'> +5.1230618e+02 </wgt>
<wgt id='72'> +4.7884714e+02 </wgt>
<wgt id='73'> +4.9179663e+02 </wgt>
<wgt id='74'> +5.3099481e+02 </wgt>
<wgt id='75'> +5.1824186e+02 </wgt>
<wgt id='76'> +4.9167563e+02 </wgt>
<wgt id='77'> +4.9214990e+02 </wgt>
<wgt id='78'> +4.9113309e+02 </wgt>
<wgt id='79'> +4.9266025e+02 </wgt>
<wgt id='80'> +4.9439546e+02 </wgt>
<wgt id='81'> +4.9343243e+02 </wgt>
<wgt id='82'> +5.0773342e+02 </wgt>
<wgt id='83'> +5.1692134e+02 </wgt>
<wgt id='84'> +5.5353107e+02 </wgt>
<wgt id='85'> +5.2495965e+02 </wgt>
<wgt id='86'> +5.0719918e+02 </wgt>
<wgt id='87'> +5.0781332e+02 </wgt>
<wgt id='88'> +5.1305474e+02 </wgt>
<wgt id='89'> +5.1644265e+02 </wgt>
<wgt id='90'> +5.1338803e+02 </wgt>
<wgt id='91'> +5.2817415e+02 </wgt>
<wgt id='92'> +4.5340354e+02 </wgt>
<wgt id='93'> +5.0126848e+02 </wgt>
<wgt id='94'> +4.9403635e+02 </wgt>
<wgt id='95'> +4.8697836e+02 </wgt>
<wgt id='96'> +5.5114514e+02 </wgt>
<wgt id='97'> +5.0452798e+02 </wgt>
<wgt id='98'> +4.8731833e+02 </wgt>
<wgt id='99'> +4.8302249e+02 </wgt>
<wgt id='100'> +4.8034582e+02 </wgt>
<wgt id='101'> +5.5089991e+02 </wgt>
<wgt id='102'> +5.0988665e+02 </wgt>
<wgt id='103'> +5.5056233e+02 </wgt>
<wgt id='104'> +5.0947701e+02 </wgt>
<wgt id='105'> +5.1974628e+02 </wgt>
<wgt id='106'> +4.5463990e+02 </wgt>
<wgt id='107'> +4.8367999e+02 </wgt>
<wgt id='108'> +4.4175331e+02 </wgt>
<wgt id='109'> +4.6945104e+02 </wgt>
<wgt id='110'> +5.0130080e+02 </wgt>
<wgt id='111'> +4.8841547e+02 </wgt>
<wgt id='112'> +4.7581498e+02 </wgt>
<wgt id='113'> +4.6126927e+02 </wgt>
<wgt id='114'> +4.9217668e+02 </wgt>
<wgt id='115'> +4.8796132e+02 </wgt>
<wgt id='116'> +5.1902674e+02 </wgt>
<wgt id='117'> +5.0429348e+02 </wgt>
<wgt id='118'> +5.2877061e+02 </wgt>
<wgt id='119'> +4.8554457e+02 </wgt>
<wgt id='120'> +4.9451000e+02 </wgt>
<wgt id='121'> +4.8928887e+02 </wgt>
<wgt id='122'> +4.9776188e+02 </wgt>
<wgt id='123'> +5.1230819e+02 </wgt>
<wgt id='124'> +5.5523417e+02 </wgt>
<wgt id='125'> +5.5739909e+02 </wgt>
<wgt id='126'> +5.2615223e+02 </wgt>
<wgt id='127'> +5.2153651e+02 </wgt>
<wgt id='128'> +4.6095746e+02 </wgt>
<wgt id='129'> +5.7205532e+02 </wgt>
<wgt id='130'> +5.0690804e+02 </wgt>
<wgt id='131'> +5.3439086e+02 </wgt>
<wgt id='132'> +5.1539137e+02 </wgt>
<wgt id='133'> +5.1344769e+02 </wgt>
<wgt id='134'> +4.8173227e+02 </wgt>
<wgt id='135'> +5.1523442e+02 </wgt>
<wgt id='136'> +5.0153548e+02 </wgt>
<wgt id='137'> +4.8123987e+02 </wgt>
<wgt id='138'> +4.7181824e+02 </wgt>
<wgt id='139'> +5.1927277e+02 </wgt>
<wgt id='140'> +5.2724633e+02 </wgt>
<wgt id='141'> +5.0974360e+02 </wgt>
<wgt id='142'> +4.8722866e+02 </wgt>
<wgt id='143'> +5.0820584e+02 </wgt>
<wgt id='144'> +4.9623811e+02 </wgt>
<wgt id='145'> +5.0446011e+02 </wgt>
</rwgt>
</event>
<event>
 4      1 +5.0481800e+02 2.05516700e+02 7.54677100e-03 1.14516600e-01
       21 -1    0    0  501  502 +0.0000000000e+00 +0.0000000000e+00 +5.7467457583e+02 5.7467457583e+02 0.0000000000e+00 0.0000e+00 -1.0000e+00
       21 -1    0    0  502  503 -0.0000000000e+00 -0.0000000000e+00 -1.4063893168e+02 1.4063893168e+02 0.0000000000e+00 0.0000e+00 -1.0000e+00
        6  1    1    2  501    0 +1.0884006675e+02 +2.1493461786e+01 +4.6413847210e+02 5.0760383205e+02 1.7300000000e+02 0.0000e+00 -1.0000e+00
       -6  1    1    2    0  503 -1.0884006675e+02 -2.1493461786e+01 -3.0102827947e+01 2.0770967546e+02 1.7300000000e+02 0.0000e+00 -1.0000e+00
<mgrwt>
<rscale>  2 0.20551674E+03</rscale>
<asrwt>0</asrwt>
<pdfrwt beam="1">  1       21 0.88411472E-01 0.20551674E+03</pdfrwt>
<pdfrwt beam="2">  1       21 0.21636759E-01 0.20551674E+03</pdfrwt>
<totfact> 0.21636041E+04</totfact>
</mgrwt>
<rwgt>
<wgt id='1'> +6.6246829e+02 </wgt>
<wgt id='2'> +5.5674472e+02 </wgt>
<wgt id='3'> +5.0481800e+02 </wgt>
<wgt id='4'> +6.6246830e+02 </wgt>
<wgt id='5'> +4.4716904e+02 </wgt>
<wgt id='6'> +6.1736898e+02 </wgt>
<wgt id='7'> +5.1283191e+02 </wgt>
<wgt id='8'> +4.6399057e+02 </wgt>
<wgt id='9'> +6.1736899e+02 </wgt>
<wgt id='10'> +4.1132729e+02 </wgt>
<wgt id='11'> +5.6743892e+02 </wgt>
<wgt id='12'> +4.7184691e+02 </wgt>
<wgt id='13'> +4.2717838e+02 </wgt>
<wgt id='14'> +5.6743893e+02 </wgt>
<wgt id='15'> +3.7903413e+02 </wgt>
<wgt id='16'> +5.4169537e+02 </wgt>
<wgt id='17'> +4.6567801e+02 </wgt>
<wgt id='18'> +4.2567023e+02 </wgt>
<wgt id='19'> +5.4169537e+02 </wgt>
<wgt id='20'> +3.7947665e+02 </wgt>
<wgt id='21'> +4.2894801e+02 </wgt>
<wgt id='22'> +3.9124392e+02 </wgt>
<wgt id='23'> +5.0481800e+02 </wgt>
<wgt id='24'> +3.4906063e+02 </wgt>
<wgt id='25'> +4.6399056e+02 </wgt>
<wgt id='26'> +3.9466694e+02 </wgt>
<wgt id='27'> +3.6020332e+02 </wgt>
<wgt id='28'> +4.6399057e+02 </wgt>
<wgt id='29'> +3.2165600e+02 </wgt>
<wgt id='30'> +4.5676579e+02 </wgt>
<wgt id='31'> +3.9604289e+02 </wgt>
<wgt id='32'> +3.6372162e+02 </wgt>
<wgt id='33'> +4.5676579e+02 </wgt>
<wgt id='34'> +3.2606598e+02 </wgt>
<wgt id='35'> +4.2567023e+02 </wgt>
<wgt id='36'> +3.6480531e+02 </wgt>
<wgt id='37'> +3.3430543e+02 </wgt>
<wgt id='38'> +4.2567023e+02 </wgt>
<wgt id='39'> +2.9993096e+02 </wgt>
<wgt id='40'> +3.9124392e+02 </wgt>
<wgt id='41'> +3.3565045e+02 </wgt>
<wgt id='42'> +3.0778223e+02 </wgt>
<wgt id='43'> +3.9124392e+02 </wgt>
<wgt id='44'> +2.7638348e+02 </wgt>
<wgt id='45'> +5.0481800e+02 </wgt>
<wgt id='46'> +5.1501966e+02 </wgt>
<wgt id='47'> +5.2403786e+02 </wgt>
<wgt id='48'> +5.1001378e+02 </wgt>
<wgt id='49'> +4.9838396e+02 </wgt>
<wgt id='50'> +6.0907822e+02 </wgt>
<wgt id='51'> +4.9281270e+02 </wgt>
<wgt id='52'> +5.0340747e+02 </wgt>
<wgt id='53'> +5.0110975e+02 </wgt>
<wgt id='54'> +5.1166783e+02 </wgt>
<wgt id='55'> +4.6690982e+02 </wgt>
<wgt id='56'> +4.5980094e+02 </wgt>
<wgt id='57'> +5.0110446e+02 </wgt>
<wgt id='58'> +4.9535201e+02 </wgt>
<wgt id='59'> +5.1721941e+02 </wgt>
<wgt id='60'> +4.9825984e+02 </wgt>
<wgt id='61'> +4.5173362e+02 </wgt>
<wgt id='62'> +4.9631201e+02 </wgt>
<wgt id='63'> +5.0659556e+02 </wgt>
<wgt id='64'> +4.9408364e+02 </wgt>
<wgt id='65'> +5.7544376e+02 </wgt>
<wgt id='66'> +4.9547797e+02 </wgt>
<wgt id='67'> +5.0833216e+02 </wgt>
<wgt id='68'> +5.5630792e+02 </wgt>
<wgt id='69'> +5.0493557e+02 </wgt>
<wgt id='70'> +4.9718453e+02 </wgt>
<wgt id='71'> +5.1084862e+02 </wgt>
<wgt id='72'> +4.8046541e+02 </wgt>
<wgt id='73'> +4.8963661e+02 </wgt>
<wgt id='74'> +5.3333146e+02 </wgt>
<wgt id='75'> +5.1812738e+02 </wgt>
<wgt id='76'> +4.9446136e+02 </wgt>
<wgt id='77'> +4.9289752e+02 </wgt>
<wgt id='78'> +4.8663587e+02 </wgt>
<wgt id='79'> +4.9537961e+02 </wgt>
<wgt id='80'> +4.9203666e+02 </wgt>
<wgt id='81'> +4.9411085e+02 </wgt>
<wgt id='82'> +5.0302499e+02 </wgt>
<wgt id='83'> +5.1474729e+02 </wgt>
<wgt id='84'> +5.4936281e+02 </wgt>
<wgt id='85'> +5.2012539e+02 </wgt>
<wgt id='86'> +5.0774565e+02 </wgt>
<wgt id='87'> +5.0800585e+02 </wgt>
<wgt id='88'> +5.1073662e+02 </wgt>
<wgt id='89'> +5.1351384e+02 </wgt>
<wgt id='90'> +5.1349691e+02 </wgt>
<wgt id='91'> +5.2278510e+02 </wgt>
<wgt id='92'> +4.5531951e+02 </wgt>
<wgt id='93'> +5.0180886e+02 </wgt>
<wgt id='94'> +4.9191467e+02 </wgt>
<wgt id='95'> +4.9195609e+02 </wgt>
<wgt id='96'> +5.4768615e+02 </wgt>
<wgt id='97'> +5.0167235e+02 </wgt>
<wgt id='98'> +4.9041817e+02 </wgt>
<wgt id='99'> +4.7984755e+02 </wgt>
<wgt id='100'> +4.7415244e+02 </wgt>
<wgt id='101'> +5.5505902e+02 </wgt>
<wgt id='102'> +5.1471752e+02 </wgt>
<wgt id='103'> +5.4775963e+02 </wgt>
<wgt id='104'> +5.1019745e+02 </wgt>
<wgt id='105'> +5.2038454e+02 </wgt>
<wgt id='106'> +4.5632042e+02 </wgt>
<wgt id='107'> +4.8200287e+02 </wgt>
<wgt id='108'> +4.4239595e+02 </wgt>
<wgt id='109'> +4.7161285e+02 </wgt>
<wgt id='110'> +5.0014871e+02 </wgt>
<wgt id='111'> +4.8931623e+02 </wgt>
<wgt id='112'> +4.7687427e+02 </wgt>
<wgt id='113'> +4.6398041e+02 </wgt>
<wgt id='114'> +4.9346398e+02 </wgt>
<wgt id='115'> +4.8383196e+02 </wgt>
<wgt id='116'> +5.2133861e+02 </wgt>
<wgt id='117'> +5.0215749e+02 </wgt>
<wgt id='118'> +5.2957512e+02 </wgt>
<wgt id='119'> +4.8904490e+02 </wgt>
<wgt id='120'> +4.9422562e+02 </wgt>
<wgt id='121'> +4.9167708e+02 </wgt>
<wgt id='122'> +4.9825944e+02 </wgt>
<wgt id='123'> +5.1055438e+02 </wgt>
<wgt id='124'> +5.5795552e+02 </wgt>
<wgt id='125'> +5.6194692e+02 </wgt>
<wgt id='126'> +5.2379212e+02 </wgt>
<wgt id='127'> +5.1990591e+02 </wgt>
<wgt id='128'> +4.5966701e+02 </wgt>
<wgt id='129'> +5.6991177e+02 </wgt>
<wgt id='130'> +5.0419802e+02 </wgt>
<wgt id='131'> +5.3048053e+02 </wgt>
<wgt id='132'> +5.2184578e+02 </wgt>
<wgt id='133'> +5.1641663e+02 </wgt>
<wgt id='134'> +4.8550922e+02 </wgt>
<wgt id='135'> +5.1353727e+02 </wgt>
<wgt id='136'> +5.1066388e+02 </wgt>
<wgt id='137'> +4.8254720e+02 </wgt>
<wgt id='138'> +4.7319628e+02 </wgt>
<wgt id='139'> +5.1991896e+02 </wgt>
<wgt id='140'> +5.2397557e+02 </wgt>
<wgt id='141'> +5.1214144e+02 </wgt>
<wgt id='142'> +4.8028917e+02 </wgt>
<wgt id='143'> +5.1090066e+02 </wgt>
<wgt id='144'> +4.9449031e+02 </wgt>
<wgt id='145'> +5.0253201e+02 </wgt>
</rwgt>
</event>
<event>
 4      1 +5.0481800e+02 1.89044900e+02 7.54677100e-03 1.15932600e-01
       21 -1    0    0  501  502 +0.0000000000e+00 +0.0000000000e+00 +8.8089082559e+02 8.8089082559e+02 0.0000000000e+00 0.0000e+00 -1.0000e+00
       21 -1    0    0  502  503 -0.0000000000e+00 -0.0000000000e+00 -4.3200583624e+01 4.3200583624e+01 0.0000000000e+00 0.0000e+00 -1.0000e+00
        6  1    1    2  501    0 +4.8144801343e+01 -5.9085094563e+01 +5.3285557598e+02 5.6539635226e+02 1.7300000000e+02 0.0000e+00 -1.0000e+00
       -6  1    1    2    0  503 -4.8144801343e+01 +5.9085094563e+01 +3.0483466599e+02 3.5869505695e+02 1.7300000000e+02 0.0000e+00 -1.0000e+00
<mgrwt>
<rscale>  2 0.18904489E+03</rscale>
<asrwt>0</asrwt>
<pdfrwt beam="1">  1       21 0.13552165E+00 0.18904489E+03</pdfrwt>
<pdfrwt beam="2">  1       21 0.66462443E-02 0.18904489E+03</pdfrwt>
<totfact> 0.64465222E+04</totfact>
</mgrwt>
<rwgt>
<wgt id='1'> +6.5530857e+02 </wgt>
<wgt id='2'> +6.8765907e+02 </wgt>
<wgt id='3'> +5.0481800e+02 </wgt>
<wgt id='4'> +6.5530857e+02 </wgt>
<wgt id='5'> +4.9906649e+02 </wgt>
<wgt id='6'> +6.2002873e+02 </wgt>
<wgt id='7'> +6.5246110e+02 </wgt>
<wgt id='8'> +4.6912465e+02 </wgt>
<wgt id='9'> +6.2002873e+02 </wgt>
<wgt id='10'> +4.6367201e+02 </wgt>
<wgt id='11'> +5.7618936e+02 </wgt>
<wgt id='12'> +6.0727071e+02 </wgt>
<wgt id='13'> +4.3580777e+02 </wgt>
<wgt id='14'> +5.7618936e+02 </wgt>
<wgt id='15'> +4.3074976e+02 </wgt>
<wgt id='16'> +5.3354231e+02 </wgt>
<wgt id='17'> +5.5673955e+02 </wgt>
<wgt id='18'> +4.2477973e+02 </wgt>
<wgt id='19'> +5.3354231e+02 </wgt>
<wgt id='20'> +4.2030781e+02 </wgt>
<wgt id='21'> +5.2824272e+02 </wgt>
<wgt id='22'> +3.9474552e+02 </wgt>
<wgt id='23'> +5.0481800e+02 </wgt>
<wgt id='24'> +3.9049900e+02 </wgt>
<wgt id='25'> +4.6912465e+02 </wgt>
<wgt id='26'> +4.9165588e+02 </wgt>
<wgt id='27'> +3.6671098e+02 </wgt>
<wgt id='28'> +4.6912465e+02 </wgt>
<wgt id='29'> +3.6277228e+02 </wgt>
<wgt id='30'> +4.4894984e+02 </wgt>
<wgt id='31'> +4.6656967e+02 </wgt>
<wgt id='32'> +3.6241306e+02 </wgt>
<wgt id='33'> +4.4894984e+02 </wgt>
<wgt id='34'> +3.5880188e+02 </wgt>
<wgt id='35'> +4.2477973e+02 </wgt>
<wgt id='36'> +4.4268821e+02 </wgt>
<wgt id='37'> +3.3678851e+02 </wgt>
<wgt id='38'> +4.2477973e+02 </wgt>
<wgt id='39'> +3.3335516e+02 </wgt>
<wgt id='40'> +3.9474552e+02 </wgt>
<wgt id='41'> +4.1202699e+02 </wgt>
<wgt id='42'> +3.1287004e+02 </wgt>
<wgt id='43'> +3.9474552e+02 </wgt>
<wgt id='44'> +3.0968584e+02 </wgt>
<wgt id='45'> +5.0481800e+02 </wgt>
<wgt id='46'> +5.1777414e+02 </wgt>
<wgt id='47'> +5.1530283e+02 </wgt>
<wgt id='48'> +5.0566742e+02 </wgt>
<wgt id='49'> +4.8670511e+02 </wgt>
<wgt id='50'> +5.8953537e+02 </wgt>
<wgt id='51'> +4.8679965e+02 </wgt>
<wgt id='52'> +4.9713195e+02 </wgt>
<wgt id='53'> +4.9680643e+02 </wgt>
<wgt id='54'> +5.2174538e+02 </wgt>
<wgt id='55'> +5.1294293e+02 </wgt>
<wgt id='56'> +4.6919849e+02 </wgt>
<wgt id='57'> +5.2126051e+02 </wgt>
<wgt id='58'> +4.8325251e+02 </wgt>
<wgt id='59'> +5.3764996e+02 </wgt>
<wgt id='60'> +5.1138660e+02 </wgt>
<wgt id='61'> +4.4226589e+02 </wgt>
<wgt id='62'> +4.8634703e+02 </wgt>
<wgt id='63'> +5.1516154e+02 </wgt>
<wgt id='64'> +5.0062802e+02 </wgt>
<wgt id='65'> +5.1799987e+02 </wgt>
<wgt id='66'> +5.0045057e+02 </wgt>
<wgt id='67'> +5.0663002e+02 </wgt>
<wgt id='68'> +5.6950639e+02 </wgt>
<wgt id='69'> +5.1334890e+02 </wgt>
<wgt id='70'> +5.0993657e+02 </wgt>
<wgt id='71'> +4.9717327e+02 </wgt>
<wgt id='72'> +4.8517565e+02 </wgt>
<wgt id='73'> +4.7884623e+02 </wgt>
<wgt id='74'> +5.4537013e+02 </wgt>
<wgt id='75'> +5.2163498e+02 </wgt>
<wgt id='76'> +5.0839936e+02 </wgt>
<wgt id='77'> +4.9357174e+02 </wgt>
<wgt id='78'> +4.6562836e+02 </wgt>
<wgt id='79'> +5.1389920e+02 </wgt>
<wgt id='80'> +4.7784758e+02 </wgt>
<wgt id='81'> +5.0337354e+02 </wgt>
<wgt id='82'> +4.8816286e+02 </wgt>
<wgt id='83'> +5.0207864e+02 </wgt>
<wgt id='84'> +5.1985199e+02 </wgt>
<wgt id='85'> +4.9227470e+02 </wgt>
<wgt id='86'> +5.1245741e+02 </wgt>
<wgt id='87'> +5.0640706e+02 </wgt>
<wgt id='88'> +4.9727549e+02 </wgt>
<wgt id='89'> +4.8801926e+02 </wgt>
<wgt id='90'> +5.0420426e+02 </wgt>
<wgt id='91'> +4.8944786e+02 </wgt>
<wgt id='92'> +4.7009342e+02 </wgt>
<wgt id='93'> +5.0542816e+02 </wgt>
<wgt id='94'> +4.8138305e+02 </wgt>
<wgt id='95'> +5.1568581e+02 </wgt>
<wgt id='96'> +5.2887013e+02 </wgt>
<wgt id='97'> +4.8478930e+02 </wgt>
<wgt id='98'> +5.0926312e+02 </wgt>
<wgt id='99'> +4.6277288e+02 </wgt>
<wgt id='100'> +4.4320676e+02 </wgt>
<wgt id='101'> +5.6784853e+02 </wgt>
<wgt id='102'> +5.3768207e+02 </wgt>
<wgt id='103'> +5.2168360e+02 </wgt>
<wgt id='104'> +5.1674275e+02 </wgt>
<wgt id='105'> +5.2029580e+02 </wgt>
<wgt id='106'> +4.7420695e+02 </wgt>
<wgt id='107'> +4.8163773e+02 </wgt>
<wgt id='108'> +4.5810942e+02 </wgt>
<wgt id='109'> +4.8821636e+02 </wgt>
<wgt id='110'> +4.9117051e+02 </wgt>
<wgt id='111'> +4.9348751e+02 </wgt>
<wgt id='112'> +4.9586870e+02 </wgt>
<wgt id='113'> +4.8949167e+02 </wgt>
<wgt id='114'> +5.0558603e+02 </wgt>
<wgt id='115'> +4.6895152e+02 </wgt>
<wgt id='116'> +5.3192920e+02 </wgt>
<wgt id='117'> +4.9409183e+02 </wgt>
<wgt id='118'> +5.2706938e+02 </wgt>
<wgt id='119'> +5.1479647e+02 </wgt>
<wgt id='120'> +4.9799758e+02 </wgt>
<wgt id='121'> +5.0277961e+02 </wgt>
<wgt id='122'> +4.9946987e+02 </wgt>
<wgt id='123'> +4.9865559e+02 </wgt>
<wgt id='124'> +5.6161206e+02 </wgt>
<wgt id='125'> +5.8237455e+02 </wgt>
<wgt id='126'> +5.0943977e+02 </wgt>
<wgt id='127'> +5.0602005e+02 </wgt>
<wgt id='128'> +4.6606850e+02 </wgt>
<wgt id='129'> +5.4541934e+02 </wgt>
<wgt id='130'> +4.8822965e+02 </wgt>
<wgt id='131'> +5.0297528e+02 </wgt>
<wgt id='132'> +5.4498730e+02 </wgt>
<wgt id='133'> +5.3052741e+02 </wgt>
<wgt id='134'> +5.0791613e+02 </wgt>
<wgt id='135'> +5.0121270e+02 </wgt>
<wgt id='136'> +5.5374430e+02 </wgt>
<wgt id='137'> +4.9603368e+02 </wgt>
<wgt id='138'> +4.8761473e+02 </wgt>
<wgt id='139'> +5.2045094e+02 </wgt>
<wgt id='140'> +5.0653894e+02 </wgt>
<wgt id='141'> +5.2905164e+02 </wgt>
<wgt id='142'> +4.3818496e+02 </wgt>
<wgt id='143'> +5.1996245e+02 </wgt>
<wgt id='144'> +4.8425687e+02 </wgt>
<wgt id='145'> +4.8784449e+02 </wgt>
</rwgt>
</event>
<event>
 4      1 +5.0481800e+02 1.91525600e+02 7.54677100e-03 1.15709200e-01
       21 -1    0    0  503  502 +0.0000000000e+00 +0.0000000000e+00 +6.8744819578e+02 6.8744819578e+02 0.0000000000e+00 0.0000e+00 -1.0000e+00
       21 -1    0    0  501  503 -0.0000000000e+00 -0.0000000000e+00 -6.0162374460e+01 6.0162374460e+01 0.0000000000e+00 0.0000e+00 -1.0000e+00
        6  1    1    2  501    0 -8.2080768098e+01 -3.9759014537e+00 +1.8794693665e+02 2.6833954475e+02 1.7300000000e+02 0.0000e+00 -1.0000e+00
       -6  1    1    2    0  502 +8.2080768098e+01 +3.9759014537e+00 +4.3933888468e+02 4.7927102549e+02 1.7300000000e+02 0.0000e+00 -1.0000e+00
<mgrwt>
<rscale>  2 0.19152561E+03</rscale>
<asrwt>0</asrwt>
<pdfrwt beam="1">  1       21 0.10576126E+00 0.19152561E+03</pdfrwt>
<pdfrwt beam="2">  1       21 0.92557504E-02 0.19152561E+03</pdfrwt>
<totfact> 0.66809972E+04</totfact>
</mgrwt>
<rwgt>
<wgt id='1'> +6.5178026e+02 </wgt>
<wgt id='2'> +6.4657458e+02 </wgt>
<wgt id='3'> +5.0481800e+02 </wgt>
<wgt id='4'> +6.5178025e+02 </wgt>
<wgt id='5'> +4.9413031e+02 </wgt>
<wgt id='6'> +6.1964687e+02 </wgt>
<wgt id='7'> +6.1434425e+02 </wgt>
<wgt id='8'> +4.7139454e+02 </wgt>
<wgt id='9'> +6.1964687e+02 </wgt>
<wgt id='10'> +4.6127551e+02 </wgt>
<wgt id='11'> +5.7862072e+02 </wgt>
<wgt id='12'> +5.7358277e+02 </wgt>
<wgt id='13'> +4.3997725e+02 </wgt>
<wgt id='14'> +5.7862071e+02 </wgt>
<wgt id='15'> +4.3053839e+02 </wgt>
<wgt id='16'> +5.3099664e+02 </wgt>
<wgt id='17'> +5.2730258e+02 </wgt>
<wgt id='18'> +4.2493747e+02 </wgt>
<wgt id='19'> +5.3099664e+02 </wgt>
<wgt id='20'> +4.1656483e+02 </wgt>
<wgt id='21'> +5.0101770e+02 </wgt>
<wgt id='22'> +3.9680281e+02 </wgt>
<wgt id='23'> +5.0481800e+02 </wgt>
<wgt id='24'> +3.8886737e+02 </wgt>
<wgt id='25'> +4.7139454e+02 </wgt>
<wgt id='26'> +4.6777538e+02 </wgt>
<wgt id='27'> +3.7035688e+02 </wgt>
<wgt id='28'> +4.7139454e+02 </wgt>
<wgt id='29'> +3.6295518e+02 </wgt>
<wgt id='30'> +4.4697370e+02 </wgt>
<wgt id='31'> +4.4412013e+02 </wgt>
<wgt id='32'> +3.6263339e+02 </wgt>
<wgt id='33'> +4.4697369e+02 </wgt>
<wgt id='34'> +3.5587397e+02 </wgt>
<wgt id='35'> +4.2493747e+02 </wgt>
<wgt id='36'> +4.2198171e+02 </wgt>
<wgt id='37'> +3.3862383e+02 </wgt>
<wgt id='38'> +4.2493747e+02 </wgt>
<wgt id='39'> +3.3221186e+02 </wgt>
<wgt id='40'> +3.9680281e+02 </wgt>
<wgt id='41'> +3.9398340e+02 </wgt>
<wgt id='42'> +3.1605538e+02 </wgt>
<wgt id='43'> +3.9680281e+02 </wgt>
<wgt id='44'> +3.1007490e+02 </wgt>
<wgt id='45'> +5.0481800e+02 </wgt>
<wgt id='46'> +5.1462979e+02 </wgt>
<wgt id='47'> +5.1763670e+02 </wgt>
<wgt id='48'> +5.0651850e+02 </wgt>
<wgt id='49'> +4.9484978e+02 </wgt>
<wgt id='50'> +5.9149063e+02 </wgt>
<wgt id='51'> +4.9131835e+02 </wgt>
<wgt id='52'> +5.0252544e+02 </wgt>
<wgt id='53'> +4.9857798e+02 </wgt>
<wgt id='54'> +5.1464736e+02 </wgt>
<wgt id='55'> +4.8706447e+02 </wgt>
<wgt id='56'> +4.6537303e+02 </wgt>
<wgt id='57'> +5.1019856e+02 </wgt>
<wgt id='58'> +4.9370761e+02 </wgt>
<wgt id='59'> +5.2540492e+02 </wgt>
<wgt id='60'> +5.0536486e+02 </wgt>
<wgt id='61'> +4.4631683e+02 </wgt>
<wgt id='62'> +4.9310873e+02 </wgt>
<wgt id='63'> +5.0890899e+02 </wgt>
<wgt id='64'> +4.9779563e+02 </wgt>
<wgt id='65'> +5.4814074e+02 </wgt>
<wgt id='66'> +4.9701606e+02 </wgt>
<wgt id='67'> +5.0742237e+02 </wgt>
<wgt id='68'> +5.5641030e+02 </wgt>
<wgt id='69'> +5.0376869e+02 </wgt>
<wgt id='70'> +5.0161712e+02 </wgt>
<wgt id='71'> +5.0672379e+02 </wgt>
<wgt id='72'> +4.8870854e+02 </wgt>
<wgt id='73'> +4.8778542e+02 </wgt>
<wgt id='74'> +5.3434628e+02 </wgt>
<wgt id='75'> +5.1658096e+02 </wgt>
<wgt id='76'> +5.0133253e+02 </wgt>
<wgt id='77'> +4.9440443e+02 </wgt>
<wgt id='78'> +4.8046368e+02 </wgt>
<wgt id='79'> +5.0207253e+02 </wgt>
<wgt id='80'> +4.8897065e+02 </wgt>
<wgt id='81'> +4.9809609e+02 </wgt>
<wgt id='82'> +4.9599292e+02 </wgt>
<wgt id='83'> +5.0735456e+02 </wgt>
<wgt id='84'> +5.3436991e+02 </wgt>
<wgt id='85'> +5.0850245e+02 </wgt>
<wgt id='86'> +5.0755692e+02 </wgt>
<wgt id='87'> +5.0736289e+02 </wgt>
<wgt id='88'> +5.0403192e+02 </wgt>
<wgt id='89'> +5.0514317e+02 </wgt>
<wgt id='90'> +5.1167714e+02 </wgt>
<wgt id='91'> +5.1033547e+02 </wgt>
<wgt id='92'> +4.6719391e+02 </wgt>
<wgt id='93'> +5.0257251e+02 </wgt>
<wgt id='94'> +4.8992973e+02 </wgt>
<wgt id='95'> +5.0343846e+02 </wgt>
<wgt id='96'> +5.3470615e+02 </wgt>
<wgt id='97'> +4.9650138e+02 </wgt>
<wgt id='98'> +4.9763886e+02 </wgt>
<wgt id='99'> +4.7625191e+02 </wgt>
<wgt id='100'> +4.6743020e+02 </wgt>
<wgt id='101'> +5.5569044e+02 </wgt>
<wgt id='102'> +5.2077534e+02 </wgt>
<wgt id='103'> +5.3603552e+02 </wgt>
<wgt id='104'> +5.0988370e+02 </wgt>
<wgt id='105'> +5.2155195e+02 </wgt>
<wgt id='106'> +4.6726392e+02 </wgt>
<wgt id='107'> +4.8429760e+02 </wgt>
<wgt id='108'> +4.5232384e+02 </wgt>
<wgt id='109'> +4.8083542e+02 </wgt>
<wgt id='110'> +4.9901545e+02 </wgt>
<wgt id='111'> +4.9266716e+02 </wgt>
<wgt id='112'> +4.8433538e+02 </wgt>
<wgt id='113'> +4.7543113e+02 </wgt>
<wgt id='114'> +4.9929916e+02 </wgt>
<wgt id='115'> +4.7813517e+02 </wgt>
<wgt id='116'> +5.2177901e+02 </wgt>
<wgt id='117'> +4.9836321e+02 </wgt>
<wgt id='118'> +5.2624102e+02 </wgt>
<wgt id='119'> +4.9947178e+02 </wgt>
<wgt id='120'> +4.9458755e+02 </wgt>
<wgt id='121'> +4.9859619e+02 </wgt>
<wgt id='122'> +4.9958105e+02 </wgt>
<wgt id='123'> +5.0471042e+02 </wgt>
<wgt id='124'> +5.5525642e+02 </wgt>
<wgt id='125'> +5.6419503e+02 </wgt>
<wgt id='126'> +5.1615088e+02 </wgt>
<wgt id='127'> +5.1388639e+02 </wgt>
<wgt id='128'> +4.6229339e+02 </wgt>
<wgt id='129'> +5.5822296e+02 </wgt>
<wgt id='130'> +4.9725743e+02 </wgt>
<wgt id='131'> +5.2006204e+02 </wgt>
<wgt id='132'> +5.3195868e+02 </wgt>
<wgt id='133'> +5.1975640e+02 </wgt>
<wgt id='134'> +4.9543729e+02 </wgt>
<wgt id='135'> +5.0904831e+02 </wgt>
<wgt id='136'> +5.2769261e+02 </wgt>
<wgt id='137'> +4.8632116e+02 </wgt>
<wgt id='138'> +4.7580488e+02 </wgt>
<wgt id='139'> +5.1930900e+02 </wgt>
<wgt id='140'> +5.1668674e+02 </wgt>
<wgt id='141'> +5.1616058e+02 </wgt>
<wgt id='142'> +4.7077271e+02 </wgt>
<wgt id='143'> +5.1560039e+02 </wgt>
<wgt id='144'> +4.9365812e+02 </wgt>
<wgt id='145'> +4.9762500e+02 </wgt>
</rwgt>
</event>
<event>
 4      1 +5.0481800e+02 1.91535100e+02 7.54677100e-03 1.15708400e-01
       21 -1    0    0  503  502 +0.0000000000e+00 +0.0000000000e+00 +8.5566375552e+01 8.5566375552e+01 0.0000000000e+00 0.0000e+00 -1.0000e+00
       21 -1    0    0  501  503 -0.0000000000e+00 -0.0000000000e+00 -5.8626706743e+02 5.8626706743e+02 0.0000000000e+00 0.0000e+00 -1.0000e+00
        6  1    1    2  501    0 +5.0170222504e+01 -6.5112399432e+01 -4.2447581779e+02 4.6568808840e+02 1.7300000000e+02 0.0000e+00 -1.0000e+00
       -6  1    1    2    0  502 -5.0170222504e+01 +6.5112399432e+01 -7.6224874080e+01 2.0614535458e+02 1.7300000000e+02 0.0000e+00 -1.0000e+00
<mgrwt>
<rscale>  2 0.19153505E+03</rscale>
<asrwt>0</asrwt>
<pdfrwt beam="1">  1       21 0.13164058E-01 0.19153505E+03</pdfrwt>
<pdfrwt beam="2">  1       21 0.90194934E-01 0.19153505E+03</pdfrwt>
<totfact> 0.51978588E+04</totfact>
</mgrwt>
<rwgt>
<wgt id='1'> +6.5361455e+02 </wgt>
<wgt id='2'> +6.0007842e+02 </wgt>
<wgt id='3'> +5.0481800e+02 </wgt>
<wgt id='4'> +6.5361455e+02 </wgt>
<wgt id='5'> +4.7727270e+02 </wgt>
<wgt id='6'> +6.1964541e+02 </wgt>
<wgt id='7'> +5.6501132e+02 </wgt>
<wgt id='8'> +4.7033407e+02 </wgt>
<wgt id='9'> +6.1964541e+02 </wgt>
<wgt id='10'> +4.4458552e+02 </wgt>
<wgt id='11'> +5.7731766e+02 </wgt>
<wgt id='12'> +5.2632312e+02 </wgt>
<wgt id='13'> +4.3817202e+02 </wgt>
<wgt id='14'> +5.7731766e+02 </wgt>
<wgt id='15'> +4.1423439e+02 </wgt>
<wgt id='16'> +5.3249227e+02 </wgt>
<wgt id='17'> +4.9482844e+02 </wgt>
<wgt id='18'> +4.2493806e+02 </wgt>
<wgt id='19'> +5.3249227e+02 </wgt>
<wgt id='20'> +4.0310932e+02 </wgt>
<wgt id='21'> +4.6591189e+02 </wgt>
<wgt id='22'> +3.9591070e+02 </wgt>
<wgt id='23'> +5.0481800e+02 </wgt>
<wgt id='24'> +3.7550140e+02 </wgt>
<wgt id='25'> +4.7033407e+02 </wgt>
<wgt id='26'> +4.3400936e+02 </wgt>
<wgt id='27'> +3.6883781e+02 </wgt>
<wgt id='28'> +4.7033407e+02 </wgt>
<wgt id='29'> +3.4986653e+02 </wgt>
<wgt id='30'> +4.4823328e+02 </wgt>
<wgt id='31'> +4.1850219e+02 </wgt>
<wgt id='32'> +3.6263422e+02 </wgt>
<wgt id='33'> +4.4823328e+02 </wgt>
<wgt id='34'> +3.4496719e+02 </wgt>
<wgt id='35'> +4.2493806e+02 </wgt>
<wgt id='36'> +3.9404595e+02 </wgt>
<wgt id='37'> +3.3786281e+02 </wgt>
<wgt id='38'> +4.2493806e+02 </wgt>
<wgt id='39'> +3.2134127e+02 </wgt>
<wgt id='40'> +3.9591070e+02 </wgt>
<wgt id='41'> +3.6706432e+02 </wgt>
<wgt id='42'> +3.1475932e+02 </wgt>
<wgt id='43'> +3.9591070e+02 </wgt>
<wgt id='44'> +2.9940382e+02 </wgt>
<wgt id='45'> +5.0481800e+02 </wgt>
<wgt id='46'> +5.1273800e+02 </wgt>
<wgt id='47'> +5.2026566e+02 </wgt>
<wgt id='48'> +5.0766725e+02 </wgt>
<wgt id='49'> +4.9823118e+02 </wgt>
<wgt id='50'> +5.9539428e+02 </wgt>
<wgt id='51'> +4.9295467e+02 </wgt>
<wgt id='52'> +5.0355739e+02 </wgt>
<wgt id='53'> +5.0129861e+02 </wgt>
<wgt id='54'> +5.1173423e+02 </wgt>
<wgt id='55'> +4.7326505e+02 </wgt>
<wgt id='56'> +4.6400429e+02 </wgt>
<wgt id='57'> +5.0373207e+02 </wgt>
<wgt id='58'> +4.9796907e+02 </wgt>
<wgt id='59'> +5.1760093e+02 </wgt>
<wgt id='60'> +4.9965286e+02 </wgt>
<wgt id='61'> +4.5401951e+02 </wgt>
<wgt id='62'> +4.9562941e+02 </wgt>
<wgt id='63'> +5.0678276e+02 </wgt>
<wgt id='64'> +4.9662479e+02 </wgt>
<wgt id='65'> +5.6622252e+02 </wgt>
<wgt id='66'> +4.9542921e+02 </wgt>
<wgt id='67'> +5.0810790e+02 </wgt>
<wgt id='68'> +5.5250254e+02 </wgt>
<wgt id='69'> +5.0086445e+02 </wgt>
<wgt id='70'> +4.9858438e+02 </wgt>
<wgt id='71'> +5.1047986e+02 </wgt>
<wgt id='72'> +4.8795573e+02 </wgt>
<wgt id='73'> +4.9126253e+02 </wgt>
<wgt id='74'> +5.3027142e+02 </wgt>
<wgt id='75'> +5.1618490e+02 </wgt>
<wgt id='76'> +4.9713806e+02 </wgt>
<wgt id='77'> +4.9297688e+02 </wgt>
<wgt id='78'> +4.8782921e+02 </wgt>
<wgt id='79'> +4.9604352e+02 </wgt>
<wgt id='80'> +4.9290955e+02 </wgt>
<wgt id='81'> +4.9605295e+02 </wgt>
<wgt id='82'> +5.0222555e+02 </wgt>
<wgt id='83'> +5.1104763e+02 </wgt>
<wgt id='84'> +5.4308123e+02 </wgt>
<wgt id='85'> +5.1697710e+02 </wgt>
<wgt id='86'> +5.0584185e+02 </wgt>
<wgt id='87'> +5.0728340e+02 </wgt>
<wgt id='88'> +5.0775961e+02 </wgt>
<wgt id='89'> +5.1148039e+02 </wgt>
<wgt id='90'> +5.1323626e+02 </wgt>
<wgt id='91'> +5.2046550e+02 </wgt>
<wgt id='92'> +4.6399942e+02 </wgt>
<wgt id='93'> +5.0091978e+02 </wgt>
<wgt id='94'> +4.9378131e+02 </wgt>
<wgt id='95'> +4.9615530e+02 </wgt>
<wgt id='96'> +5.4009359e+02 </wgt>
<wgt id='97'> +5.0200782e+02 </wgt>
<wgt id='98'> +4.9167861e+02 </wgt>
<wgt id='99'> +4.8124931e+02 </wgt>
<wgt id='100'> +4.7783144e+02 </wgt>
<wgt id='101'> +5.4983549e+02 </wgt>
<wgt id='102'> +5.1210690e+02 </wgt>
<wgt id='103'> +5.4282979e+02 </wgt>
<wgt id='104'> +5.0794306e+02 </wgt>
<wgt id='105'> +5.2213652e+02 </wgt>
<wgt id='106'> +4.6351238e+02 </wgt>
<wgt id='107'> +4.8641416e+02 </wgt>
<wgt id='108'> +4.4908719e+02 </wgt>
<wgt id='109'> +4.7654102e+02 </wgt>
<wgt id='110'> +5.0150249e+02 </wgt>
<wgt id='111'> +4.9168769e+02 </wgt>
<wgt id='112'> +4.8019912e+02 </wgt>
<wgt id='113'> +4.6889675e+02 </wgt>
<wgt id='114'> +4.9753937e+02 </wgt>
<wgt id='115'> +4.8467205e+02 </wgt>
<wgt id='116'> +5.1738106e+02 </wgt>
<wgt id='117'> +5.0180937e+02 </wgt>
<wgt id='118'> +5.2549832e+02 </wgt>
<wgt id='119'> +4.9260663e+02 </wgt>
<wgt id='120'> +4.9466071e+02 </wgt>
<wgt id='121'> +4.9514798e+02 </wgt>
<wgt id='122'> +4.9933415e+02 </wgt>
<wgt id='123'> +5.0786457e+02 </wgt>
<wgt id='124'> +5.5245372e+02 </wgt>
<wgt id='125'> +5.5730126e+02 </wgt>
<wgt id='126'> +5.2001533e+02 </wgt>
<wgt id='127'> +5.1736647e+02 </wgt>
<wgt id='128'> +4.6191909e+02 </wgt>
<wgt id='129'> +5.6507790e+02 </wgt>
<wgt id='130'> +5.0103785e+02 </wgt>
<wgt id='131'> +5.2803389e+02 </wgt>
<wgt id='132'> +5.2304069e+02 </wgt>
<wgt id='133'> +5.1451589e+02 </wgt>
<wgt id='134'> +4.8824208e+02 </wgt>
<wgt id='135'> +5.1261888e+02 </wgt>
<wgt id='136'> +5.1335599e+02 </wgt>
<wgt id='137'> +4.8228961e+02 </wgt>
<wgt id='138'> +4.7058783e+02 </wgt>
<wgt id='139'> +5.1852651e+02 </wgt>
<wgt id='140'> +5.2295117e+02 </wgt>
<wgt id='141'> +5.1129170e+02 </wgt>
<wgt id='142'> +4.8209638e+02 </wgt>
<wgt id='143'> +5.1173890e+02 </wgt>
<wgt id='144'> +4.9708091e+02 </wgt>
<wgt id='145'> +5.0189549e+02 </wgt>
</rwgt>
</event>
<event>
 4      1 +5.0481800e+02 1.93289700e+02 7.54677100e-03 1.15552700e-01
       21 -1    0    0  501  502 +0.0000000000e+00 +0.0000000000e+00 +1.8648061063e+02 1.8648061063e+02 0.0000000000e+00 0.0000e+00 1.0000e+00
       21 -1    0    0  502  503 -0.0000000000e+00 -0.0000000000e+00 -3.0487233839e+02 3.0487233839e+02 0.0000000000e+00 0.0000e+00 1.0000e+00
        6  1    1    2  501    0 +8.1345512363e+01 -2.8544909249e+01 +8.4655682407e+01 2.1101537572e+02 1.7300000000e+02 0.0000e+00 1.0000e+00
       -6  1    1    2    0  503 -8.1345512363e+01 +2.8544909249e+01 -2.0304741017e+02 2.8033757330e+02 1.7300000000e+02 0.0000e+00 1.0000e+00
<mgrwt>
<rscale>  2 0.19328969E+03</rscale>
<asrwt>0</asrwt>
<pdfrwt beam="1">  1       21 0.28689325E-01 0.19328969E+03</pdfrwt>
<pdfrwt beam="2">  1       21 0.46903436E-01 0.19328969E+03</pdfrwt>
<totfact> 0.50560837E+04</totfact>
</mgrwt>
<rwgt>
<wgt id='1'> +6.5210217e+02 </wgt>
<wgt id='2'> +5.8314278e+02 </wgt>
<wgt id='3'> +5.0481800e+02 </wgt>
<wgt id='4'> +6.5210217e+02 </wgt>
<wgt id='5'> +4.6863604e+02 </wgt>
<wgt id='6'> +6.1937280e+02 </wgt>
<wgt id='7'> +5.4896785e+02 </wgt>
<wgt id='8'> +4.7137950e+02 </wgt>
<wgt id='9'> +6.1937280e+02 </wgt>
<wgt id='10'> +4.3755887e+02 </wgt>
<wgt id='11'> +5.7834633e+02 </wgt>
<wgt id='12'> +5.1256031e+02 </wgt>
<wgt id='13'> +4.4018335e+02 </wgt>
<wgt id='14'> +5.7834633e+02 </wgt>
<wgt id='15'> +4.0867502e+02 </wgt>
<wgt id='16'> +5.3149398e+02 </wgt>
<wgt id='17'> +4.8288788e+02 </wgt>
<wgt id='18'> +4.2504621e+02 </wgt>
<wgt id='19'> +5.3149398e+02 </wgt>
<wgt id='20'> +3.9630773e+02 </wgt>
<wgt id='21'> +4.5458836e+02 </wgt>
<wgt id='22'> +3.9689169e+02 </wgt>
<wgt id='23'> +5.0481800e+02 </wgt>
<wgt id='24'> +3.7002695e+02 </wgt>
<wgt id='25'> +4.7137950e+02 </wgt>
<wgt id='26'> +4.2444007e+02 </wgt>
<wgt id='27'> +3.7062518e+02 </wgt>
<wgt id='28'> +4.7137950e+02 </wgt>
<wgt id='29'> +3.4560097e+02 </wgt>
<wgt id='30'> +4.4750682e+02 </wgt>
<wgt id='31'> +4.0907114e+02 </wgt>
<wgt id='32'> +3.6278645e+02 </wgt>
<wgt id='33'> +4.4750682e+02 </wgt>
<wgt id='34'> +3.3951545e+02 </wgt>
<wgt id='35'> +4.2504621e+02 </wgt>
<wgt id='36'> +3.8509763e+02 </wgt>
<wgt id='37'> +3.3875594e+02 </wgt>
<wgt id='38'> +4.2504621e+02 </wgt>
<wgt id='39'> +3.1700079e+02 </wgt>
<wgt id='40'> +3.9689169e+02 </wgt>
<wgt id='41'> +3.5955796e+02 </wgt>
<wgt id='42'> +3.1633689e+02 </wgt>
<wgt id='43'> +3.9689169e+02 </wgt>
<wgt id='44'> +2.9607514e+02 </wgt>
<wgt id='45'> +5.0481800e+02 </wgt>
<wgt id='46'> +5.0588498e+02 </wgt>
<wgt id='47'> +5.2391842e+02 </wgt>
<wgt id='48'> +5.0714905e+02 </wgt>
<wgt id='49'> +5.0396767e+02 </wgt>
<wgt id='50'> +5.9376195e+02 </wgt>
<wgt id='51'> +4.9510575e+02 </wgt>
<wgt id='52'> +5.0219111e+02 </wgt>
<wgt id='53'> +5.1030069e+02 </wgt>
<wgt id='54'> +5.0764375e+02 </wgt>
<wgt id='55'> +4.4923938e+02 </wgt>
<wgt id='56'> +4.6807190e+02 </wgt>
<wgt id='57'> +4.9051115e+02 </wgt>
<wgt id='58'> +5.0734298e+02 </wgt>
<wgt id='59'> +4.9772218e+02 </wgt>
<wgt id='60'> +4.8445473e+02 </wgt>
<wgt id='61'> +4.9055761e+02 </wgt>
<wgt id='62'> +4.9857025e+02 </wgt>
<wgt id='63'> +5.0519885e+02 </wgt>
<wgt id='64'> +4.9910519e+02 </wgt>
<wgt id='65'> +5.9784966e+02 </wgt>
<wgt id='66'> +4.9282177e+02 </wgt>
<wgt id='67'> +5.0940804e+02 </wgt>
<wgt id='68'> +5.4211239e+02 </wgt>
<wgt id='69'> +4.9368853e+02 </wgt>
<wgt id='70'> +4.9589945e+02 </wgt>
<wgt id='71'> +5.1449798e+02 </wgt>
<wgt id='72'> +4.8802147e+02 </wgt>
<wgt id='73'> +4.9773699e+02 </wgt>
<wgt id='74'> +5.2101731e+02 </wgt>
<wgt id='75'> +5.1652741e+02 </wgt>
<wgt id='76'> +4.8912398e+02 </wgt>
<wgt id='77'> +4.8660619e+02 </wgt>
<wgt id='78'> +5.0446853e+02 </wgt>
<wgt id='79'> +4.8419240e+02 </wgt>
<wgt id='80'> +5.0021402e+02 </wgt>
<wgt id='81'> +4.9477244e+02 </wgt>
<wgt id='82'> +5.1856949e+02 </wgt>
<wgt id='83'> +5.1641391e+02 </wgt>
<wgt id='84'> +5.5640414e+02 </wgt>
<wgt id='85'> +5.3240158e+02 </wgt>
<wgt id='86'> +5.0220308e+02 </wgt>
<wgt id='87'> +5.0521986e+02 </wgt>
<wgt id='88'> +5.1438714e+02 </wgt>
<wgt id='89'> +5.1784235e+02 </wgt>
<wgt id='90'> +5.1082188e+02 </wgt>
<wgt id='91'> +5.3787136e+02 </wgt>
<wgt id='92'> +4.6127541e+02 </wgt>
<wgt id='93'> +4.9661818e+02 </wgt>
<wgt id='94'> +5.0143589e+02 </wgt>
<wgt id='95'> +4.8275231e+02 </wgt>
<wgt id='96'> +5.4815693e+02 </wgt>
<wgt id='97'> +5.1239652e+02 </wgt>
<wgt id='98'> +4.8105725e+02 </wgt>
<wgt id='99'> +4.8985324e+02 </wgt>
<wgt id='100'> +4.9952888e+02 </wgt>
<wgt id='101'> +5.3229062e+02 </wgt>
<wgt id='102'> +4.9135420e+02 </wgt>
<wgt id='103'> +5.5016883e+02 </wgt>
<wgt id='104'> +5.0457531e+02 </wgt>
<wgt id='105'> +5.2404613e+02 </wgt>
<wgt id='106'> +4.6165012e+02 </wgt>
<wgt id='107'> +4.9679438e+02 </wgt>
<wgt id='108'> +4.4976772e+02 </wgt>
<wgt id='109'> +4.7247225e+02 </wgt>
<wgt id='110'> +5.0546980e+02 </wgt>
<wgt id='111'> +4.9065665e+02 </wgt>
<wgt id='112'> +4.8036584e+02 </wgt>
<wgt id='113'> +4.6166754e+02 </wgt>
<wgt id='114'> +5.0170661e+02 </wgt>
<wgt id='115'> +5.0461523e+02 </wgt>
<wgt id='116'> +5.0581321e+02 </wgt>
<wgt id='117'> +5.1136611e+02 </wgt>
<wgt id='118'> +5.1908559e+02 </wgt>
<wgt id='119'> +4.8396358e+02 </wgt>
<wgt id='120'> +5.0210593e+02 </wgt>
<wgt id='121'> +4.8953618e+02 </wgt>
<wgt id='122'> +4.9785887e+02 </wgt>
<wgt id='123'> +5.1214304e+02 </wgt>
<wgt id='124'> +5.4097924e+02 </wgt>
<wgt id='125'> +5.4183628e+02 </wgt>
<wgt id='126'> +5.2554173e+02 </wgt>
<wgt id='127'> +5.2075998e+02 </wgt>
<wgt id='128'> +4.6756440e+02 </wgt>
<wgt id='129'> +5.7332758e+02 </wgt>
<wgt id='130'> +5.0970724e+02 </wgt>
<wgt id='131'> +5.4162586e+02 </wgt>
<wgt id='132'> +4.9941424e+02 </wgt>
<wgt id='133'> +5.0214070e+02 </wgt>
<wgt id='134'> +4.7404063e+02 </wgt>
<wgt id='135'> +5.1820647e+02 </wgt>
<wgt id='136'> +4.8337269e+02 </wgt>
<wgt id='137'> +4.7536036e+02 </wgt>
<wgt id='138'> +4.5981147e+02 </wgt>
<wgt id='139'> +5.1519766e+02 </wgt>
<wgt id='140'> +5.3686958e+02 </wgt>
<wgt id='141'> +5.0420316e+02 </wgt>
<wgt id='142'> +5.0768795e+02 </wgt>
<wgt id='143'> +5.0039132e+02 </wgt>
<wgt id='144'> +5.0361755e+02 </wgt>
<wgt id='145'> +5.0614351e+02 </wgt>
</rwgt>
</event>
<event>
 4      1 +5.0481800e+02 1.80230800e+02 7.54677100e-03 1.16758000e-01
       -2 -1    0    0    0  501 -0.0000000000e+00 +0.0000000000e+00 +4.7701760166e+01 4.7701760166e+01 0.0000000000e+00 0.0000e+00 -1.0000e+00
        2 -1    0    0  502    0 +0.0000000000e+00 -0.0000000000e+00 -8.6512395006e+02 8.6512395006e+02 0.0000000000e+00 0.0000e+00 1.0000e+00
        6  1    1    2  502    0 -2.0555695617e+01 -4.6169306822e+01 -6.1929117230e+02 6.4498426151e+02 1.7300000000e+02 0.0000e+00 1.0000e+00
       -6  1    1    2    0  501 +2.0555695617e+01 +4.6169306822e+01 -1.9813101760e+02 2.6784144872e+02 1.7300000000e+02 0.0000e+00 -1.0000e+00
<mgrwt>
<rscale>  2 0.18023080E+03</rscale>
<asrwt>0</asrwt>
<pdfrwt beam="2">  1        2 0.13309599E+00 0.18023080E+03</pdfrwt>
<pdfrwt beam="1">  1       -2 0.73387323E-02 0.18023080E+03</pdfrwt>
<totfact> 0.34258911E+03</totfact>
</mgrwt>
<rwgt>
<wgt id='1'> +6.0747453e+02 </wgt>
<wgt id='2'> +6.8428816e+02 </wgt>
<wgt id='3'> +5.0481800e+02 </wgt>
<wgt id='4'> +6.0747453e+02 </wgt>
<wgt id='5'> +4.9053479e+02 </wgt>
<wgt id='6'> +6.2139127e+02 </wgt>
<wgt id='7'> +7.0400610e+02 </wgt>
<wgt id='8'> +5.1236460e+02 </wgt>
<wgt id='9'> +6.2139127e+02 </wgt>
<wgt id='10'> +4.9727762e+02 </wgt>
<wgt id='11'> +6.3068054e+02 </wgt>
<wgt id='12'> +7.1775820e+02 </wgt>
<wgt id='13'> +5.1682564e+02 </wgt>
<wgt id='14'> +6.3068054e+02 </wgt>
<wgt id='15'> +5.0115136e+02 </wgt>
<wgt id='16'> +4.9351205e+02 </wgt>
<wgt id='17'> +5.4746326e+02 </wgt>
<wgt id='18'> +4.2416726e+02 </wgt>
<wgt id='19'> +4.9351205e+02 </wgt>
<wgt id='20'> +4.1352382e+02 </wgt>
<wgt id='21'> +5.6323856e+02 </wgt>
<wgt id='22'> +4.3050820e+02 </wgt>
<wgt id='23'> +5.0481800e+02 </wgt>
<wgt id='24'> +4.1920808e+02 </wgt>
<wgt id='25'> +5.1236460e+02 </wgt>
<wgt id='26'> +5.7424090e+02 </wgt>
<wgt id='27'> +4.3425654e+02 </wgt>
<wgt id='28'> +5.1236460e+02 </wgt>
<wgt id='29'> +4.2247367e+02 </wgt>
<wgt id='30'> +4.1466757e+02 </wgt>
<wgt id='31'> +4.5120912e+02 </wgt>
<wgt id='32'> +3.6157598e+02 </wgt>
<wgt id='33'> +4.1466757e+02 </wgt>
<wgt id='34'> +3.5326904e+02 </wgt>
<wgt id='35'> +4.2416726e+02 </wgt>
<wgt id='36'> +4.6421083e+02 </wgt>
<wgt id='37'> +3.6698124e+02 </wgt>
<wgt id='38'> +4.2416726e+02 </wgt>
<wgt id='39'> +3.5812504e+02 </wgt>
<wgt id='40'> +4.3050820e+02 </wgt>
<wgt id='41'> +4.7327875e+02 </wgt>
<wgt id='42'> +3.7017646e+02 </wgt>
<wgt id='43'> +4.3050820e+02 </wgt>
<wgt id='44'> +3.6091479e+02 </wgt>
<wgt id='45'> +5.0481800e+02 </wgt>
<wgt id='46'> +5.0180537e+02 </wgt>
<wgt id='47'> +4.8767474e+02 </wgt>
<wgt id='48'> +4.9776222e+02 </wgt>
<wgt id='49'> +4.9990022e+02 </wgt>
<wgt id='50'> +4.6341648e+02 </wgt>
<wgt id='51'> +5.1516048e+02 </wgt>
<wgt id='52'> +4.9190137e+02 </wgt>
<wgt id='53'> +5.2005327e+02 </wgt>
<wgt id='54'> +4.9571026e+02 </wgt>
<wgt id='55'> +4.8847895e+02 </wgt>
<wgt id='56'> +5.3961825e+02 </wgt>
<wgt id='57'> +4.9604878e+02 </wgt>
<wgt id='58'> +5.2138497e+02 </wgt>
<wgt id='59'> +4.7745245e+02 </wgt>
<wgt id='60'> +5.0524872e+02 </wgt>
<wgt id='61'> +5.5800021e+02 </wgt>
<wgt id='62'> +5.2448974e+02 </wgt>
<wgt id='63'> +5.0350335e+02 </wgt>
<wgt id='64'> +5.0262778e+02 </wgt>
<wgt id='65'> +5.0365218e+02 </wgt>
<wgt id='66'> +5.2548425e+02 </wgt>
<wgt id='67'> +5.1079827e+02 </wgt>
<wgt id='68'> +4.2403472e+02 </wgt>
<wgt id='69'> +4.7527279e+02 </wgt>
<wgt id='70'> +4.8956719e+02 </wgt>
<wgt id='71'> +5.2238991e+02 </wgt>
<wgt id='72'> +5.3064017e+02 </wgt>
<wgt id='73'> +5.1785197e+02 </wgt>
<wgt id='74'> +4.5291429e+02 </wgt>
<wgt id='75'> +4.7659809e+02 </wgt>
<wgt id='76'> +5.2757497e+02 </wgt>
<wgt id='77'> +5.2387165e+02 </wgt>
<wgt id='78'> +5.3697423e+02 </wgt>
<wgt id='79'> +5.0884498e+02 </wgt>
<wgt id='80'> +5.4876188e+02 </wgt>
<wgt id='81'> +5.0744152e+02 </wgt>
<wgt id='82'> +5.0759131e+02 </wgt>
<wgt id='83'> +4.8985013e+02 </wgt>
<wgt id='84'> +5.0031381e+02 </wgt>
<wgt id='85'> +5.0210709e+02 </wgt>
<wgt id='86'> +4.9536086e+02 </wgt>
<wgt id='87'> +5.0807335e+02 </wgt>
<wgt id='88'> +5.0898920e+02 </wgt>
<wgt id='89'> +5.0112588e+02 </wgt>
<wgt id='90'> +5.3752141e+02 </wgt>
<wgt id='91'> +4.8319682e+02 </wgt>
<wgt id='92'> +5.4125049e+02 </wgt>
<wgt id='93'> +4.8715186e+02 </wgt>
<wgt id='94'> +5.0669665e+02 </wgt>
<wgt id='95'> +5.0159502e+02 </wgt>
<wgt id='96'> +4.8779891e+02 </wgt>
<wgt id='97'> +5.2536836e+02 </wgt>
<wgt id='98'> +5.1242739e+02 </wgt>
<wgt id='99'> +5.2848577e+02 </wgt>
<wgt id='100'> +5.5953540e+02 </wgt>
<wgt id='101'> +4.3715484e+02 </wgt>
<wgt id='102'> +4.6613254e+02 </wgt>
<wgt id='103'> +4.7857080e+02 </wgt>
<wgt id='104'> +4.9074770e+02 </wgt>
<wgt id='105'> +5.0399767e+02 </wgt>
<wgt id='106'> +5.4112307e+02 </wgt>
<wgt id='107'> +5.0534940e+02 </wgt>
<wgt id='108'> +5.6750340e+02 </wgt>
<wgt id='109'> +5.3121749e+02 </wgt>
<wgt id='110'> +5.2485440e+02 </wgt>
<wgt id='111'> +5.3276372e+02 </wgt>
<wgt id='112'> +5.2240113e+02 </wgt>
<wgt id='113'> +5.0809847e+02 </wgt>
<wgt id='114'> +5.1263937e+02 </wgt>
<wgt id='115'> +5.3774470e+02 </wgt>
<wgt id='116'> +4.7979705e+02 </wgt>
<wgt id='117'> +5.0585657e+02 </wgt>
<wgt id='118'> +4.7010793e+02 </wgt>
<wgt id='119'> +5.0292035e+02 </wgt>
<wgt id='120'> +5.0446812e+02 </wgt>
<wgt id='121'> +5.0887541e+02 </wgt>
<wgt id='122'> +5.2049597e+02 </wgt>
<wgt id='123'> +5.4206946e+02 </wgt>
<wgt id='124'> +4.6512465e+02 </wgt>
<wgt id='125'> +4.3601440e+02 </wgt>
<wgt id='126'> +4.9867376e+02 </wgt>
<wgt id='127'> +4.9360677e+02 </wgt>
<wgt id='128'> +5.2186917e+02 </wgt>
<wgt id='129'> +4.7215653e+02 </wgt>
<wgt id='130'> +4.9859797e+02 </wgt>
<wgt id='131'> +4.9479307e+02 </wgt>
<wgt id='132'> +4.6945893e+02 </wgt>
<wgt id='133'> +4.8227442e+02 </wgt>
<wgt id='134'> +4.9776545e+02 </wgt>
<wgt id='135'> +4.9941503e+02 </wgt>
<wgt id='136'> +4.7926275e+02 </wgt>
<wgt id='137'> +5.2364085e+02 </wgt>
<wgt id='138'> +5.1553384e+02 </wgt>
<wgt id='139'> +4.8480528e+02 </wgt>
<wgt id='140'> +4.9648558e+02 </wgt>
<wgt id='141'> +4.7943166e+02 </wgt>
<wgt id='142'> +5.6760417e+02 </wgt>
<wgt id='143'> +5.2094034e+02 </wgt>
<wgt id='144'> +5.4235414e+02 </wgt>
<wgt id='145'> +5.1710780e+02 </wgt>
</rwgt>
</event>
<event>
 4      1 +5.0481800e+02 3.85607900e+02 7.54677100e-03 1.04888000e-01
       21 -1    0    0  501  502 +0.0000000000e+00 +0.0000000000e+00 +6.0747494380e+02 6.0747494380e+02 0.0000000000e+00 0.0000e+00 -1.0000e+00
       21 -1    0    0  502  503 -0.0000000000e+00 -0.0000000000e+00 -2.4551119078e+02 2.4551119078e+02 0.0000000000e+00 0.0000e+00 1.0000e+00
        6  1    1    2  501    0 -9.9908647619e+01 -3.2982224255e+02 +1.5759523609e+02 4.1656897146e+02 1.7300000000e+02 0.0000e+00 1.0000e+00
       -6  1    1    2    0  503 +9.9908647619e+01 +3.2982224255e+02 +2.0436851694e+02 4.3641716312e+02 1.7300000000e+02 0.0000e+00 -1.0000e+00
<mgrwt>
<rscale>  2 0.38560790E+03</rscale>
<asrwt>0</asrwt>
<pdfrwt beam="1">  1       21 0.93457683E-01 0.38560790E+03</pdfrwt>
<pdfrwt beam="2">  1       21 0.37770953E-01 0.38560790E+03</pdfrwt>
<totfact> 0.58642918E+03</totfact>
</mgrwt>
<rwgt>
<wgt id='1'> +6.6529090e+02 </wgt>
<wgt id='2'> +5.0917850e+02 </wgt>
<wgt id='3'> +5.0481800e+02 </wgt>
<wgt id='4'> +6.6529090e+02 </wgt>
<wgt id='5'> +5.0452518e+02 </wgt>
<wgt id='6'> +5.9960302e+02 </wgt>
<wgt id='7'> +4.6044069e+02 </wgt>
<wgt id='8'> +4.5655048e+02 </wgt>
<wgt id='9'> +5.9960303e+02 </wgt>
<wgt id='10'> +4.5628923e+02 </wgt>
<wgt id='11'> +5.4227276e+02 </wgt>
<wgt id='12'> +4.1789712e+02 </wgt>
<wgt id='13'> +4.1441551e+02 </wgt>
<wgt id='14'> +5.4227276e+02 </wgt>
<wgt id='15'> +4.1418169e+02 </wgt>
<wgt id='16'> +5.6012196e+02 </wgt>
<wgt id='17'> +4.3439975e+02 </wgt>
<wgt id='18'> +4.3085382e+02 </wgt>
<wgt id='19'> +5.6012196e+02 </wgt>
<wgt id='20'> +4.3061565e+02 </wgt>
<wgt id='21'> +3.9281966e+02 </wgt>
<wgt id='22'> +3.8965829e+02 </wgt>
<wgt id='23'> +5.0481800e+02 </wgt>
<wgt id='24'> +3.8944594e+02 </wgt>
<wgt id='25'> +4.5655048e+02 </wgt>
<wgt id='26'> +3.5652410e+02 </wgt>
<wgt id='27'> +3.5369679e+02 </wgt>
<wgt id='28'> +4.5655048e+02 </wgt>
<wgt id='29'> +3.5350687e+02 </wgt>
<wgt id='30'> +4.7805484e+02 </wgt>
<wgt id='31'> +3.7496318e+02 </wgt>
<wgt id='32'> +3.7203097e+02 </wgt>
<wgt id='33'> +4.7805484e+02 </wgt>
<wgt id='34'> +3.7183397e+02 </wgt>
<wgt id='35'> +4.3085382e+02 </wgt>
<wgt id='36'> +3.3907227e+02 </wgt>
<wgt id='37'> +3.3645971e+02 </wgt>
<wgt id='38'> +4.3085382e+02 </wgt>
<wgt id='39'> +3.3628418e+02 </wgt>
<wgt id='40'> +3.8965829e+02 </wgt>
<wgt id='41'> +3.0774283e+02 </wgt>
<wgt id='42'> +3.0540790e+02 </wgt>
<wgt id='43'> +3.8965829e+02 </wgt>
<wgt id='44'> +3.0525101e+02 </wgt>
<wgt id='45'> +5.0481800e+02 </wgt>
<wgt id='46'> +5.2260236e+02 </wgt>
<wgt id='47'> +5.2835413e+02 </wgt>
<wgt id='48'> +5.1423598e+02 </wgt>
<wgt id='49'> +4.9527177e+02 </wgt>
<wgt id='50'> +6.2705774e+02 </wgt>
<wgt id='51'> +4.9204270e+02 </wgt>
<wgt id='52'> +5.0231866e+02 </wgt>
<wgt id='53'> +4.9627084e+02 </wgt>
<wgt id='54'> +5.1354457e+02 </wgt>
<wgt id='55'> +4.7304863e+02 </wgt>
<wgt id='56'> +4.5484366e+02 </wgt>
<wgt id='57'> +5.0344374e+02 </wgt>
<wgt id='58'> +4.8519132e+02 </wgt>
<wgt id='59'> +5.2693471e+02 </wgt>
<wgt id='60'> +5.0536179e+02 </wgt>
<wgt id='61'> +4.3866700e+02 </wgt>
<wgt id='62'> +4.9584734e+02 </wgt>
<wgt id='63'> +5.0816559e+02 </wgt>
<wgt id='64'> +4.8847771e+02 </wgt>
<wgt id='65'> +5.6537644e+02 </wgt>
<wgt id='66'> +4.9925612e+02 </wgt>
<wgt id='67'> +5.0810642e+02 </wgt>
<wgt id='68'> +5.6754114e+02 </wgt>
<wgt id='69'> +5.1847709e+02 </wgt>
<wgt id='70'> +4.9906034e+02 </wgt>
<wgt id='71'> +5.0774409e+02 </wgt>
<wgt id='72'> +4.6626007e+02 </wgt>
<wgt id='73'> +4.8320638e+02 </wgt>
<wgt id='74'> +5.4379279e+02 </wgt>
<wgt id='75'> +5.2173520e+02 </wgt>
<wgt id='76'> +4.9467462e+02 </wgt>
<wgt id='77'> +4.9662698e+02 </wgt>
<wgt id='78'> +4.7540722e+02 </wgt>
<wgt id='79'> +5.0350495e+02 </wgt>
<wgt id='80'> +4.8677146e+02 </wgt>
<wgt id='81'> +4.9331626e+02 </wgt>
<wgt id='82'> +4.9696486e+02 </wgt>
<wgt id='83'> +5.1766736e+02 </wgt>
<wgt id='84'> +5.4884954e+02 </wgt>
<wgt id='85'> +5.1460083e+02 </wgt>
<wgt id='86'> +5.1427999e+02 </wgt>
<wgt id='87'> +5.0971923e+02 </wgt>
<wgt id='88'> +5.1253141e+02 </wgt>
<wgt id='89'> +5.1008589e+02 </wgt>
<wgt id='90'> +5.1271556e+02 </wgt>
<wgt id='91'> +5.1459913e+02 </wgt>
<wgt id='92'> +4.4432278e+02 </wgt>
<wgt id='93'> +5.0666061e+02 </wgt>
<wgt id='94'> +4.8423757e+02 </wgt>
<wgt id='95'> +4.9170936e+02 </wgt>
<wgt id='96'> +5.5480671e+02 </wgt>
<wgt id='97'> +4.9418446e+02 </wgt>
<wgt id='98'> +4.9691744e+02 </wgt>
<wgt id='99'> +4.7275039e+02 </wgt>
<wgt id='100'> +4.5628467e+02 </wgt>
<wgt id='101'> +5.7227689e+02 </wgt>
<wgt id='102'> +5.3246512e+02 </wgt>
<wgt id='103'> +5.4717621e+02 </wgt>
<wgt id='104'> +5.1753631e+02 </wgt>
<wgt id='105'> +5.1409115e+02 </wgt>
<wgt id='106'> +4.4791033e+02 </wgt>
<wgt id='107'> +4.7031094e+02 </wgt>
<wgt id='108'> +4.3530664e+02 </wgt>
<wgt id='109'> +4.6722214e+02 </wgt>
<wgt id='110'> +4.9438928e+02 </wgt>
<wgt id='111'> +4.8580244e+02 </wgt>
<wgt id='112'> +4.7449097e+02 </wgt>
<wgt id='113'> +4.6359529e+02 </wgt>
<wgt id='114'> +4.8366514e+02 </wgt>
<wgt id='115'> +4.7221059e+02 </wgt>
<wgt id='116'> +5.3548108e+02 </wgt>
<wgt id='117'> +4.9729353e+02 </wgt>
<wgt id='118'> +5.3854135e+02 </wgt>
<wgt id='119'> +4.8959055e+02 </wgt>
<wgt id='120'> +4.8909983e+02 </wgt>
<wgt id='121'> +4.8834654e+02 </wgt>
<wgt id='122'> +4.9650664e+02 </wgt>
<wgt id='123'> +5.1195496e+02 </wgt>
<wgt id='124'> +5.7065409e+02 </wgt>
<wgt id='125'> +5.7723831e+02 </wgt>
<wgt id='126'> +5.2595634e+02 </wgt>
<wgt id='127'> +5.2033797e+02 </wgt>
<wgt id='128'> +4.5721491e+02 </wgt>
<wgt id='129'> +5.6722951e+02 </wgt>
<wgt id='130'> +5.0649854e+02 </wgt>
<wgt id='131'> +5.2389843e+02 </wgt>
<wgt id='132'> +5.3121240e+02 </wgt>
<wgt id='133'> +5.2697307e+02 </wgt>
<wgt id='134'> +4.9129575e+02 </wgt>
<wgt id='135'> +5.1041277e+02 </wgt>
<wgt id='136'> +5.2278716e+02 </wgt>
<wgt id='137'> +4.9072490e+02 </wgt>
<wgt id='138'> +4.8919310e+02 </wgt>
<wgt id='139'> +5.2314441e+02 </wgt>
<wgt id='140'> +5.1580647e+02 </wgt>
<wgt id='141'> +5.1936966e+02 </wgt>
<wgt id='142'> +4.6384402e+02 </wgt>
<wgt id='143'> +5.1545590e+02 </wgt>
<wgt id='144'> +4.8594837e+02 </wgt>
<wgt id='145'> +5.0019809e+02 </wgt>
</rwgt>
</event>
<event>
 4      1 +5.0481800e+02 2.12594400e+02 7.54677100e-03 1.13952800e-01
       21 -1    0    0  503  502 +0.0000000000e+00 +0.0000000000e+00 +8.3082303023e+02 8.3082303023e+02 0.0000000000e+00 0.0000e+00 -1.0000e+00
       21 -1    0    0  501  503 -0.0000000000e+00 -0.0000000000e+00 -1.2835909561e+02 1.2835909561e+02 0.0000000000e+00 0.0000e+00 -1.0000e+00
        6  1    1    2  501    0 +1.1868627907e+02 +3.4364892871e+01 -1.2812928306e+01 2.1298016301e+02 1.7300000000e+02 0.0000e+00 -1.0000e+00
       -6  1    1    2    0  502 -1.1868627907e+02 -3.4364892871e+01 +7.1527686292e+02 7.4620196283e+02 1.7300000000e+02 0.0000e+00 -1.0000e+00
<mgrwt>
<rscale>  2 0.21259440E+03</rscale>
<asrwt>0</asrwt>
<pdfrwt beam="1">  1       21 0.12781892E+00 0.21259440E+03</pdfrwt>
<pdfrwt beam="2">  1       21 0.19747554E-01 0.21259440E+03</pdfrwt>
<totfact> 0.10512027E+04</totfact>
</mgrwt>
<rwgt>
<wgt id='1'> +6.7312120e+02 </wgt>
<wgt id='2'> +5.5348128e+02 </wgt>
<wgt id='3'> +5.0481800e+02 </wgt>
<wgt id='4'> +6.7312120e+02 </wgt>
<wgt id='5'> +4.2637049e+02 </wgt>
<wgt id='6'> +6.1619020e+02 </wgt>
<wgt id='7'> +5.0131257e+02 </wgt>
<wgt id='8'> +4.5693250e+02 </wgt>
<wgt id='9'> +6.1619020e+02 </wgt>
<wgt id='10'> +3.8662764e+02 </wgt>
<wgt id='11'> +5.5774027e+02 </wgt>
<wgt id='12'> +4.5465455e+02 </wgt>
<wgt id='13'> +4.1480802e+02 </wgt>
<wgt id='14'> +5.5774027e+02 </wgt>
<wgt id='15'> +3.5166345e+02 </wgt>
<wgt id='16'> +5.5145911e+02 </wgt>
<wgt id='17'> +4.6408132e+02 </wgt>
<wgt id='18'> +4.2595766e+02 </wgt>
<wgt id='19'> +5.5145911e+02 </wgt>
<wgt id='20'> +3.6278520e+02 </wgt>
<wgt id='21'> +4.2033906e+02 </wgt>
<wgt id='22'> +3.8555261e+02 </wgt>
<wgt id='23'> +5.0481800e+02 </wgt>
<wgt id='24'> +3.2896926e+02 </wgt>
<wgt id='25'> +4.5693250e+02 </wgt>
<wgt id='26'> +3.8121738e+02 </wgt>
<wgt id='27'> +3.5000862e+02 </wgt>
<wgt id='28'> +4.5693250e+02 </wgt>
<wgt id='29'> +2.9921934e+02 </wgt>
<wgt id='30'> +4.6531271e+02 </wgt>
<wgt id='31'> +3.9514733e+02 </wgt>
<wgt id='32'> +3.6418707e+02 </wgt>
<wgt id='33'> +4.6531271e+02 </wgt>
<wgt id='34'> +3.1243194e+02 </wgt>
<wgt id='35'> +4.2595766e+02 </wgt>
<wgt id='36'> +3.5790249e+02 </wgt>
<wgt id='37'> +3.2964139e+02 </wgt>
<wgt id='38'> +4.2595766e+02 </wgt>
<wgt id='39'> +2.8330953e+02 </wgt>
<wgt id='40'> +3.8555261e+02 </wgt>
<wgt id='41'> +3.2459189e+02 </wgt>
<wgt id='42'> +2.9925184e+02 </wgt>
<wgt id='43'> +3.8555261e+02 </wgt>
<wgt id='44'> +2.5768879e+02 </wgt>
<wgt id='45'> +5.0481800e+02 </wgt>
<wgt id='46'> +5.2025290e+02 </wgt>
<wgt id='47'> +5.2275583e+02 </wgt>
<wgt id='48'> +5.0917053e+02 </wgt>
<wgt id='49'> +4.8795035e+02 </wgt>
<wgt id='50'> +6.1522791e+02 </wgt>
<wgt id='51'> +4.8702027e+02 </wgt>
<wgt id='52'> +4.9773961e+02 </wgt>
<wgt id='53'> +4.9801171e+02 </wgt>
<wgt id='54'> +5.2035290e+02 </wgt>
<wgt id='55'> +4.9507217e+02 </wgt>
<wgt id='56'> +4.6012057e+02 </wgt>
<wgt id='57'> +5.1478718e+02 </wgt>
<wgt id='58'> +4.8077313e+02 </wgt>
<wgt id='59'> +5.3364888e+02 </wgt>
<wgt id='60'> +5.0474557e+02 </wgt>
<wgt id='61'> +4.3676564e+02 </wgt>
<wgt id='62'> +4.8828338e+02 </wgt>
<wgt id='63'> +5.1297029e+02 </wgt>
<wgt id='64'> +4.9581857e+02 </wgt>
<wgt id='65'> +5.4374651e+02 </wgt>
<wgt id='66'> +4.9941644e+02 </wgt>
<wgt id='67'> +5.0733246e+02 </wgt>
<wgt id='68'> +5.7319186e+02 </wgt>
<wgt id='69'> +5.1792353e+02 </wgt>
<wgt id='70'> +5.0535871e+02 </wgt>
<wgt id='71'> +5.0074202e+02 </wgt>
<wgt id='72'> +4.7456965e+02 </wgt>
<wgt id='73'> +4.7724854e+02 </wgt>
<wgt id='74'> +5.4770635e+02 </wgt>
<wgt id='75'> +5.2379046e+02 </wgt>
<wgt id='76'> +5.0290616e+02 </wgt>
<wgt id='77'> +4.9233576e+02 </wgt>
<wgt id='78'> +4.6731025e+02 </wgt>
<wgt id='79'> +5.0853074e+02 </wgt>
<wgt id='80'> +4.7905261e+02 </wgt>
<wgt id='81'> +4.9879966e+02 </wgt>
<wgt id='82'> +4.9079548e+02 </wgt>
<wgt id='83'> +5.0993646e+02 </wgt>
<wgt id='84'> +5.3516741e+02 </wgt>
<wgt id='85'> +5.0074302e+02 </wgt>
<wgt id='86'> +5.1420881e+02 </wgt>
<wgt id='87'> +5.0737628e+02 </wgt>
<wgt id='88'> +5.0467691e+02 </wgt>
<wgt id='89'> +4.9425006e+02 </wgt>
<wgt id='90'> +5.0612981e+02 </wgt>
<wgt id='91'> +4.9843180e+02 </wgt>
<wgt id='92'> +4.5570467e+02 </wgt>
<wgt id='93'> +5.0516651e+02 </wgt>
<wgt id='94'> +4.8037186e+02 </wgt>
<wgt id='95'> +5.0650739e+02 </wgt>
<wgt id='96'> +5.4253198e+02 </wgt>
<wgt id='97'> +4.8749003e+02 </wgt>
<wgt id='98'> +5.0474144e+02 </wgt>
<wgt id='99'> +4.6224727e+02 </wgt>
<wgt id='100'> +4.4251997e+02 </wgt>
<wgt id='101'> +5.7367242e+02 </wgt>
<wgt id='102'> +5.3732476e+02 </wgt>
<wgt id='103'> +5.3299899e+02 </wgt>
<wgt id='104'> +5.1946112e+02 </wgt>
<wgt id='105'> +5.1894193e+02 </wgt>
<wgt id='106'> +4.6054686e+02 </wgt>
<wgt id='107'> +4.7529074e+02 </wgt>
<wgt id='108'> +4.4537988e+02 </wgt>
<wgt id='109'> +4.7810193e+02 </wgt>
<wgt id='110'> +4.9020289e+02 </wgt>
<wgt id='111'> +4.9012341e+02 </wgt>
<wgt id='112'> +4.8739836e+02 </wgt>
<wgt id='113'> +4.7714663e+02 </wgt>
<wgt id='114'> +4.9879231e+02 </wgt>
<wgt id='115'> +4.7166039e+02 </wgt>
<wgt id='116'> +5.3567779e+02 </wgt>
<wgt id='117'> +4.9636663e+02 </wgt>
<wgt id='118'> +5.3309549e+02 </wgt>
<wgt id='119'> +5.0503952e+02 </wgt>
<wgt id='120'> +4.9776681e+02 </wgt>
<wgt id='121'> +4.9590806e+02 </wgt>
<wgt id='122'> +4.9776788e+02 </wgt>
<wgt id='123'> +5.0472993e+02 </wgt>
<wgt id='124'> +5.6985878e+02 </wgt>
<wgt id='125'> +5.8658003e+02 </wgt>
<wgt id='126'> +5.1642670e+02 </wgt>
<wgt id='127'> +5.1165931e+02 </wgt>
<wgt id='128'> +4.6157684e+02 </wgt>
<wgt id='129'> +5.5772856e+02 </wgt>
<wgt id='130'> +4.9655010e+02 </wgt>
<wgt id='131'> +5.1138175e+02 </wgt>
<wgt id='132'> +5.3963390e+02 </wgt>
<wgt id='133'> +5.3057461e+02 </wgt>
<wgt id='134'> +4.9963473e+02 </wgt>
<wgt id='135'> +5.0448913e+02 </wgt>
<wgt id='136'> +5.4287746e+02 </wgt>
<wgt id='137'> +4.9380728e+02 </wgt>
<wgt id='138'> +4.8818449e+02 </wgt>
<wgt id='139'> +5.2181790e+02 </wgt>
<wgt id='140'> +5.1131479e+02 </wgt>
<wgt id='141'> +5.2810893e+02 </wgt>
<wgt id='142'> +4.4317491e+02 </wgt>
<wgt id='143'> +5.1701299e+02 </wgt>
<wgt id='144'> +4.8208345e+02 </wgt>
<wgt id='145'> +4.9148996e+02 </wgt>
</rwgt>
</event>
<event>
 4      1 +5.0481800e+02 2.29345500e+02 7.54677100e-03 1.12710100e-01
       21 -1    0    0  501  502 +0.0000000000e+00 +0.0000000000e+00 +2.2614533396e+02 2.2614533396e+02 0.0000000000e+00 0.0000e+00 -1.0000e+00
       21 -1    0    0  502  503 -0.0000000000e+00 -0.0000000000e+00 -3.0203081681e+02 3.0203081681e+02 0.0000000000e+00 0.0000e+00 1.0000e+00
        6  1    1    2  501    0 -1.3427728980e+02 -6.8117364420e+01 +8.8684601597e+01 2.4589494597e+02 1.7300000000e+02 0.0000e+00 -1.0000e+00
       -6  1    1    2    0  503 +1.3427728980e+02 +6.8117364420e+01 -1.6457008444e+02 2.8228120480e+02 1.7300000000e+02 0.0000e+00 1.0000e+00
<mgrwt>
<rscale>  2 0.22934552E+03</rscale>
<asrwt>0</asrwt>
<pdfrwt beam="1">  1       21 0.34791590E-01 0.22934552E+03</pdfrwt>
<pdfrwt beam="2">  1       21 0.46466279E-01 0.22934552E+03</pdfrwt>
<totfact> 0.34674082E+04</totfact>
</mgrwt>
<rwgt>
<wgt id='1'> +6.5351024e+02 </wgt>
<wgt id='2'> +5.2936598e+02 </wgt>
<wgt id='3'> +5.0481800e+02 </wgt>
<wgt id='4'> +6.5351024e+02 </wgt>
<wgt id='5'> +4.8171314e+02 </wgt>
<wgt id='6'> +6.1360677e+02 </wgt>
<wgt id='7'> +4.9141757e+02 </wgt>
<wgt id='8'> +4.6872974e+02 </wgt>
<wgt id='9'> +6.1360677e+02 </wgt>
<wgt id='10'> +4.4732528e+02 </wgt>
<wgt id='11'> +5.6974146e+02 </wgt>
<wgt id='12'> +4.5658117e+02 </wgt>
<wgt id='13'> +4.3559441e+02 </wgt>
<wgt id='14'> +5.6974146e+02 </wgt>
<wgt id='15'> +4.1579945e+02 </wgt>
<wgt id='16'> +5.3764683e+02 </wgt>
<wgt id='17'> +4.4616347e+02 </wgt>
<wgt id='18'> +4.2656843e+02 </wgt>
<wgt id='19'> +5.3764683e+02 </wgt>
<wgt id='20'> +4.0811410e+02 </wgt>
<wgt id='21'> +4.1417957e+02 </wgt>
<wgt id='22'> +3.9607405e+02 </wgt>
<wgt id='23'> +5.0481800e+02 </wgt>
<wgt id='24'> +3.7898022e+02 </wgt>
<wgt id='25'> +4.6872974e+02 </wgt>
<wgt id='26'> +3.8481854e+02 </wgt>
<wgt id='27'> +3.6807487e+02 </wgt>
<wgt id='28'> +4.6872974e+02 </wgt>
<wgt id='29'> +3.5227110e+02 </wgt>
<wgt id='30'> +4.5430860e+02 </wgt>
<wgt id='31'> +3.8108696e+02 </wgt>
<wgt id='32'> +3.6519330e+02 </wgt>
<wgt id='33'> +4.5430861e+02 </wgt>
<wgt id='34'> +3.5018000e+02 </wgt>
<wgt id='35'> +4.2656843e+02 </wgt>
<wgt id='36'> +3.5376816e+02 </wgt>
<wgt id='37'> +3.3908648e+02 </wgt>
<wgt id='38'> +4.2656843e+02 </wgt>
<wgt id='39'> +3.2518184e+02 </wgt>
<wgt id='40'> +3.9607405e+02 </wgt>
<wgt id='41'> +3.2868967e+02 </wgt>
<wgt id='42'> +3.1511586e+02 </wgt>
<wgt id='43'> +3.9607405e+02 </wgt>
<wgt id='44'> +3.0226423e+02 </wgt>
<wgt id='45'> +5.0481800e+02 </wgt>
<wgt id='46'> +5.0852144e+02 </wgt>
<wgt id='47'> +5.2547916e+02 </wgt>
<wgt id='48'> +5.0886470e+02 </wgt>
<wgt id='49'> +5.0363145e+02 </wgt>
<wgt id='50'> +6.0056942e+02 </wgt>
<wgt id='51'> +4.9515860e+02 </wgt>
<wgt id='52'> +5.0260566e+02 </wgt>
<wgt id='53'> +5.0830811e+02 </wgt>
<wgt id='54'> +5.0770511e+02 </wgt>
<wgt id='55'> +4.4923125e+02 </wgt>
<wgt id='56'> +4.6562695e+02 </wgt>
<wgt id='57'> +4.9050414e+02 </wgt>
<wgt id='58'> +5.0464647e+02 </wgt>
<wgt id='59'> +5.0047735e+02 </wgt>
<wgt id='60'> +4.8704244e+02 </wgt>
<wgt id='61'> +4.8547677e+02 </wgt>
<wgt id='62'> +4.9907435e+02 </wgt>
<wgt id='63'> +5.0530329e+02 </wgt>
<wgt id='64'> +4.9670644e+02 </wgt>
<wgt id='65'> +5.9672665e+02 </wgt>
<wgt id='66'> +4.9367317e+02 </wgt>
<wgt id='67'> +5.0940122e+02 </wgt>
<wgt id='68'> +5.4520921e+02 </wgt>
<wgt id='69'> +4.9739286e+02 </wgt>
<wgt id='70'> +4.9560308e+02 </wgt>
<wgt id='71'> +5.1418345e+02 </wgt>
<wgt id='72'> +4.8304720e+02 </wgt>
<wgt id='73'> +4.9630401e+02 </wgt>
<wgt id='74'> +5.2392272e+02 </wgt>
<wgt id='75'> +5.1737376e+02 </wgt>
<wgt id='76'> +4.8856646e+02 </wgt>
<wgt id='77'> +4.8829129e+02 </wgt>
<wgt id='78'> +5.0137141e+02 </wgt>
<wgt id='79'> +4.8615008e+02 </wgt>
<wgt id='80'> +4.9914188e+02 </wgt>
<wgt id='81'> +4.9388380e+02 </wgt>
<wgt id='82'> +5.1685713e+02 </wgt>
<wgt id='83'> +5.1780608e+02 </wgt>
<wgt id='84'> +5.5755360e+02 </wgt>
<wgt id='85'> +5.3201227e+02 </wgt>
<wgt id='86'> +5.0404682e+02 </wgt>
<wgt id='87'> +5.0612369e+02 </wgt>
<wgt id='88'> +5.1527334e+02 </wgt>
<wgt id='89'> +5.1862311e+02 </wgt>
<wgt id='90'> +5.1152306e+02 </wgt>
<wgt id='91'> +5.3670886e+02 </wgt>
<wgt id='92'> +4.5671798e+02 </wgt>
<wgt id='93'> +4.9821575e+02 </wgt>
<wgt id='94'> +4.9938704e+02 </wgt>
<wgt id='95'> +4.8167403e+02 </wgt>
<wgt id='96'> +5.5151545e+02 </wgt>
<wgt id='97'> +5.1061345e+02 </wgt>
<wgt id='98'> +4.8202172e+02 </wgt>
<wgt id='99'> +4.8856877e+02 </wgt>
<wgt id='100'> +4.9471620e+02 </wgt>
<wgt id='101'> +5.3761676e+02 </wgt>
<wgt id='102'> +4.9627316e+02 </wgt>
<wgt id='103'> +5.5178108e+02 </wgt>
<wgt id='104'> +5.0626079e+02 </wgt>
<wgt id='105'> +5.2188980e+02 </wgt>
<wgt id='106'> +4.5764031e+02 </wgt>
<wgt id='107'> +4.9231806e+02 </wgt>
<wgt id='108'> +4.4608616e+02 </wgt>
<wgt id='109'> +4.7002315e+02 </wgt>
<wgt id='110'> +5.0431570e+02 </wgt>
<wgt id='111'> +4.8914530e+02 </wgt>
<wgt id='112'> +4.7826480e+02 </wgt>
<wgt id='113'> +4.6002839e+02 </wgt>
<wgt id='114'> +4.9724731e+02 </wgt>
<wgt id='115'> +5.0008654e+02 </wgt>
<wgt id='116'> +5.0998258e+02 </wgt>
<wgt id='117'> +5.0969422e+02 </wgt>
<wgt id='118'> +5.2257561e+02 </wgt>
<wgt id='119'> +4.8286238e+02 </wgt>
<wgt id='120'> +4.9940135e+02 </wgt>
<wgt id='121'> +4.8807475e+02 </wgt>
<wgt id='122'> +4.9731347e+02 </wgt>
<wgt id='123'> +5.1314528e+02 </wgt>
<wgt id='124'> +5.4535583e+02 </wgt>
<wgt id='125'> +5.4593469e+02 </wgt>
<wgt id='126'> +5.2707957e+02 </wgt>
<wgt id='127'> +5.2190044e+02 </wgt>
<wgt id='128'> +4.6567530e+02 </wgt>
<wgt id='129'> +5.7395636e+02 </wgt>
<wgt id='130'> +5.1066021e+02 </wgt>
<wgt id='131'> +5.4088622e+02 </wgt>
<wgt id='132'> +5.0218416e+02 </wgt>
<wgt id='133'> +5.0518731e+02 </wgt>
<wgt id='134'> +4.7501007e+02 </wgt>
<wgt id='135'> +5.1787708e+02 </wgt>
<wgt id='136'> +4.8574322e+02 </wgt>
<wgt id='137'> +4.7704258e+02 </wgt>
<wgt id='138'> +4.6396840e+02 </wgt>
<wgt id='139'> +5.1652643e+02 </wgt>
<wgt id='140'> +5.3479309e+02 </wgt>
<wgt id='141'> +5.0541903e+02 </wgt>
<wgt id='142'> +5.0373470e+02 </wgt>
<wgt id='143'> +5.0193798e+02 </wgt>
<wgt id='144'> +5.0137681e+02 </wgt>
<wgt id='145'> +5.0612997e+02 </wgt>
</rwgt>
</event>
<event>
 4      1 +5.0481800e+02 1.89409400e+02 7.54677100e-03 1.15899500e-01
        1 -1    0    0  502    0 +0.0000000000e+00 +0.0000000000e+00 +1.0440912169e+03 1.0440912169e+03 0.0000000000e+00 0.0000e+00 1.0000e+00
       -1 -1    0    0    0  501 -0.0000000000e+00 -0.0000000000e+00 -3.9275032962e+01 3.9275032962e+01 0.0000000000e+00 0.0000e+00 -1.0000e+00
        6  1    1    2  502    0 +7.6664391098e+01 -8.3366466619e+00 +6.9401442469e+02 7.1939693509e+02 1.7300000000e+02 0.0000e+00 1.0000e+00
       -6  1    1    2    0  501 -7.6664391098e+01 +8.3366466619e+00 +3.1080175922e+02 3.6396931474e+02 1.7300000000e+02 0.0000e+00 -1.0000e+00
<mgrwt>
<rscale>  2 0.18940942E+03</rscale>
<asrwt>0</asrwt>
<pdfrwt beam="1">  1        1 0.16062940E+00 0.18940942E+03</pdfrwt>
<pdfrwt beam="2">  1       -1 0.60423136E-02 0.18940942E+03</pdfrwt>
<totfact> 0.19540704E+03</totfact>
</mgrwt>
<rwgt>
<wgt id='1'> +6.1376339e+02 </wgt>
<wgt id='2'> +6.3707326e+02 </wgt>
<wgt id='3'> +5.0481800e+02 </wgt>
<wgt id='4'> +6.1376339e+02 </wgt>
<wgt id='5'> +4.9631752e+02 </wgt>
<wgt id='6'> +6.1997293e+02 </wgt>
<wgt id='7'> +6.4437988e+02 </wgt>
<wgt id='8'> +5.0660186e+02 </wgt>
<wgt id='9'> +6.1997293e+02 </wgt>
<wgt id='10'> +4.9779239e+02 </wgt>
<wgt id='11'> +6.2216371e+02 </wgt>
<wgt id='12'> +6.4736267e+02 </wgt>
<wgt id='13'> +5.0579106e+02 </wgt>
<wgt id='14'> +6.2216371e+02 </wgt>
<wgt id='15'> +4.9678598e+02 </wgt>
<wgt id='16'> +4.9976183e+02 </wgt>
<wgt id='17'> +5.1578919e+02 </wgt>
<wgt id='18'> +4.2480327e+02 </wgt>
<wgt id='19'> +4.9976183e+02 </wgt>
<wgt id='20'> +4.1836947e+02 </wgt>
<wgt id='21'> +5.2170480e+02 </wgt>
<wgt id='22'> +4.2630439e+02 </wgt>
<wgt id='23'> +5.0481800e+02 </wgt>
<wgt id='24'> +4.1961271e+02 </wgt>
<wgt id='25'> +5.0660186e+02 </wgt>
<wgt id='26'> +5.2411973e+02 </wgt>
<wgt id='27'> +4.2562210e+02 </wgt>
<wgt id='28'> +5.0660186e+02 </wgt>
<wgt id='29'> +4.1876436e+02 </wgt>
<wgt id='30'> +4.2054852e+02 </wgt>
<wgt id='31'> +4.3225529e+02 </wgt>
<wgt id='32'> +3.6244583e+02 </wgt>
<wgt id='33'> +4.2054852e+02 </wgt>
<wgt id='34'> +3.5738817e+02 </wgt>
<wgt id='35'> +4.2480327e+02 </wgt>
<wgt id='36'> +4.3721284e+02 </wgt>
<wgt id='37'> +3.6372659e+02 </wgt>
<wgt id='38'> +4.2480327e+02 </wgt>
<wgt id='39'> +3.5845020e+02 </wgt>
<wgt id='40'> +4.2630439e+02 </wgt>
<wgt id='41'> +4.3923667e+02 </wgt>
<wgt id='42'> +3.6314446e+02 </wgt>
<wgt id='43'> +4.2630439e+02 </wgt>
<wgt id='44'> +3.5772550e+02 </wgt>
<wgt id='45'> +5.0481800e+02 </wgt>
<wgt id='46'> +4.9604002e+02 </wgt>
<wgt id='47'> +4.8961837e+02 </wgt>
<wgt id='48'> +5.2247471e+02 </wgt>
<wgt id='49'> +4.7783801e+02 </wgt>
<wgt id='50'> +4.3952726e+02 </wgt>
<wgt id='51'> +5.4927804e+02 </wgt>
<wgt id='52'> +4.8970212e+02 </wgt>
<wgt id='53'> +4.7953670e+02 </wgt>
<wgt id='54'> +4.9309970e+02 </wgt>
<wgt id='55'> +5.1670051e+02 </wgt>
<wgt id='56'> +5.9944287e+02 </wgt>
<wgt id='57'> +4.9114568e+02 </wgt>
<wgt id='58'> +4.6681519e+02 </wgt>
<wgt id='59'> +4.7753290e+02 </wgt>
<wgt id='60'> +4.9998954e+02 </wgt>
<wgt id='61'> +5.4531732e+02 </wgt>
<wgt id='62'> +5.3835610e+02 </wgt>
<wgt id='63'> +5.0123009e+02 </wgt>
<wgt id='64'> +4.9760739e+02 </wgt>
<wgt id='65'> +5.3798667e+02 </wgt>
<wgt id='66'> +5.6469050e+02 </wgt>
<wgt id='67'> +5.3596548e+02 </wgt>
<wgt id='68'> +4.1397075e+02 </wgt>
<wgt id='69'> +4.8234112e+02 </wgt>
<wgt id='70'> +4.5165271e+02 </wgt>
<wgt id='71'> +5.7958861e+02 </wgt>
<wgt id='72'> +5.1715600e+02 </wgt>
<wgt id='73'> +5.1081419e+02 </wgt>
<wgt id='74'> +4.1768660e+02 </wgt>
<wgt id='75'> +4.7494737e+02 </wgt>
<wgt id='76'> +5.1653507e+02 </wgt>
<wgt id='77'> +5.3555354e+02 </wgt>
<wgt id='78'> +5.3896744e+02 </wgt>
<wgt id='79'> +5.0400749e+02 </wgt>
<wgt id='80'> +5.8738890e+02 </wgt>
<wgt id='81'> +4.8287290e+02 </wgt>
<wgt id='82'> +4.9689814e+02 </wgt>
<wgt id='83'> +4.9894052e+02 </wgt>
<wgt id='84'> +5.0553969e+02 </wgt>
<wgt id='85'> +5.1161794e+02 </wgt>
<wgt id='86'> +4.8709570e+02 </wgt>
<wgt id='87'> +4.8614788e+02 </wgt>
<wgt id='88'> +5.1291744e+02 </wgt>
<wgt id='89'> +4.9686971e+02 </wgt>
<wgt id='90'> +5.3948061e+02 </wgt>
<wgt id='91'> +5.5848254e+02 </wgt>
<wgt id='92'> +5.5888957e+02 </wgt>
<wgt id='93'> +5.0092708e+02 </wgt>
<wgt id='94'> +5.4394841e+02 </wgt>
<wgt id='95'> +5.1040625e+02 </wgt>
<wgt id='96'> +4.7287310e+02 </wgt>
<wgt id='97'> +5.4950548e+02 </wgt>
<wgt id='98'> +5.2337172e+02 </wgt>
<wgt id='99'> +5.2000583e+02 </wgt>
<wgt id='100'> +5.8837846e+02 </wgt>
<wgt id='101'> +4.2797313e+02 </wgt>
<wgt id='102'> +4.4927666e+02 </wgt>
<wgt id='103'> +4.4059169e+02 </wgt>
<wgt id='104'> +5.5529988e+02 </wgt>
<wgt id='105'> +4.8312966e+02 </wgt>
<wgt id='106'> +5.3936237e+02 </wgt>
<wgt id='107'> +4.9599853e+02 </wgt>
<wgt id='108'> +6.0056935e+02 </wgt>
<wgt id='109'> +5.3952337e+02 </wgt>
<wgt id='110'> +5.1161501e+02 </wgt>
<wgt id='111'> +5.2670580e+02 </wgt>
<wgt id='112'> +5.0243641e+02 </wgt>
<wgt id='113'> +4.7833701e+02 </wgt>
<wgt id='114'> +5.2913000e+02 </wgt>
<wgt id='115'> +5.7866058e+02 </wgt>
<wgt id='116'> +4.7715404e+02 </wgt>
<wgt id='117'> +5.1508920e+02 </wgt>
<wgt id='118'> +4.3685534e+02 </wgt>
<wgt id='119'> +4.6204962e+02 </wgt>
<wgt id='120'> +5.0227379e+02 </wgt>
<wgt id='121'> +4.8717348e+02 </wgt>
<wgt id='122'> +5.2361415e+02 </wgt>
<wgt id='123'> +5.5001285e+02 </wgt>
<wgt id='124'> +4.4265632e+02 </wgt>
<wgt id='125'> +3.8974754e+02 </wgt>
<wgt id='126'> +5.0283884e+02 </wgt>
<wgt id='127'> +4.9186020e+02 </wgt>
<wgt id='128'> +5.8891347e+02 </wgt>
<wgt id='129'> +4.3558686e+02 </wgt>
<wgt id='130'> +5.1415229e+02 </wgt>
<wgt id='131'> +4.9521061e+02 </wgt>
<wgt id='132'> +4.5661882e+02 </wgt>
<wgt id='133'> +4.4851986e+02 </wgt>
<wgt id='134'> +5.1964732e+02 </wgt>
<wgt id='135'> +4.8898192e+02 </wgt>
<wgt id='136'> +4.2455934e+02 </wgt>
<wgt id='137'> +5.1964033e+02 </wgt>
<wgt id='138'> +5.4597711e+02 </wgt>
<wgt id='139'> +4.4934384e+02 </wgt>
<wgt id='140'> +4.7277366e+02 </wgt>
<wgt id='141'> +4.5150775e+02 </wgt>
<wgt id='142'> +6.3846705e+02 </wgt>
<wgt id='143'> +4.9564650e+02 </wgt>
<wgt id='144'> +5.3100140e+02 </wgt>
<wgt id='145'> +5.1600788e+02 </wgt>
</rwgt>
</event>
<event>
 4      1 +5.0481800e+02 1.76051200e+02 7.54677100e-03 1.17168000e-01
       21 -1    0    0  501  502 +0.0000000000e+00 +0.0000000000e+00 +3.2209829872e+03 3.2209829872e+03 0.0000000000e+00 0.0000e+00 1.0000e+00
       21 -1    0    0  502  503 -0.0000000000e+00 -0.0000000000e+00 -1.1375229331e+01 1.1375229331e+01 0.0000000000e+00 0.0000e+00 1.0000e+00
        6  1    1    2  501    0 -6.6905004272e+00 +3.1941765287e+01 +2.2392019014e+03 2.2461120174e+03 1.7300000000e+02 0.0000e+00 1.0000e+00
       -6  1    1    2    0  503 +6.6905004272e+00 -3.1941765287e+01 +9.7040585645e+02 9.8624619918e+02 1.7300000000e+02 0.0000e+00 1.0000e+00
<mgrwt>
<rscale>  2 0.17605124E+03</rscale>
<asrwt>0</asrwt>
<pdfrwt beam="1">  1       21 0.49553512E+00 0.17605124E+03</pdfrwt>
<pdfrwt beam="2">  1       21 0.17500378E-02 0.17605124E+03</pdfrwt>
<totfact> 0.31932916E+03</totfact>
</mgrwt>
<rwgt>
<wgt id='1'> +7.5875950e+02 </wgt>
<wgt id='2'> +1.4660533e+03 </wgt>
<wgt id='3'> +5.0481800e+02 </wgt>
<wgt id='4'> +7.5875949e+02 </wgt>
<wgt id='5'> +4.8193623e+02 </wgt>
<wgt id='6'> +6.2209840e+02 </wgt>
<wgt id='7'> +1.1662403e+03 </wgt>
<wgt id='8'> +4.1581592e+02 </wgt>
<wgt id='9'> +6.2209840e+02 </wgt>
<wgt id='10'> +3.9761098e+02 </wgt>
<wgt id='11'> +5.1241917e+02 </wgt>
<wgt id='12'> +9.4877618e+02 </wgt>
<wgt id='13'> +3.4860615e+02 </wgt>
<wgt id='14'> +5.1241917e+02 </wgt>
<wgt id='15'> +3.3402031e+02 </wgt>
<wgt id='16'> +6.1571521e+02 </wgt>
<wgt id='17'> +1.1458268e+03 </wgt>
<wgt id='18'> +4.2384363e+02 </wgt>
<wgt id='19'> +6.1571521e+02 </wgt>
<wgt id='20'> +4.0566979e+02 </wgt>
<wgt id='21'> +9.1150127e+02 </wgt>
<wgt id='22'> +3.4911776e+02 </wgt>
<wgt id='23'> +5.0481800e+02 </wgt>
<wgt id='24'> +3.3468901e+02 </wgt>
<wgt id='25'> +4.1581592e+02 </wgt>
<wgt id='26'> +7.4153733e+02 </wgt>
<wgt id='27'> +2.9268865e+02 </wgt>
<wgt id='28'> +4.1581592e+02 </wgt>
<wgt id='29'> +2.8116157e+02 </wgt>
<wgt id='30'> +5.1695259e+02 </wgt>
<wgt id='31'> +9.2012783e+02 </wgt>
<wgt id='32'> +3.6114443e+02 </wgt>
<wgt id='33'> +5.1695259e+02 </wgt>
<wgt id='34'> +3.4618708e+02 </wgt>
<wgt id='35'> +4.2384363e+02 </wgt>
<wgt id='36'> +7.3195849e+02 </wgt>
<wgt id='37'> +2.9747276e+02 </wgt>
<wgt id='38'> +4.2384363e+02 </wgt>
<wgt id='39'> +2.8561410e+02 </wgt>
<wgt id='40'> +3.4911776e+02 </wgt>
<wgt id='41'> +5.9547316e+02 </wgt>
<wgt id='42'> +2.4939121e+02 </wgt>
<wgt id='43'> +3.4911776e+02 </wgt>
<wgt id='44'> +2.3993530e+02 </wgt>
<wgt id='45'> +5.0481800e+02 </wgt>
<wgt id='46'> +5.0318269e+02 </wgt>
<wgt id='47'> +6.1514520e+02 </wgt>
<wgt id='48'> +3.9229994e+02 </wgt>
<wgt id='49'> +3.5688433e+02 </wgt>
<wgt id='50'> +8.2048316e+02 </wgt>
<wgt id='51'> +6.3393351e+02 </wgt>
<wgt id='52'> +3.9369943e+02 </wgt>
<wgt id='53'> +6.3964640e+02 </wgt>
<wgt id='54'> +5.1794501e+02 </wgt>
<wgt id='55'> +6.5619131e+02 </wgt>
<wgt id='56'> +4.6030950e+02 </wgt>
<wgt id='57'> +6.8364818e+02 </wgt>
<wgt id='58'> +4.0639614e+02 </wgt>
<wgt id='59'> +6.3587954e+02 </wgt>
<wgt id='60'> +5.5863078e+02 </wgt>
<wgt id='61'> +3.9924261e+02 </wgt>
<wgt id='62'> +4.2229316e+02 </wgt>
<wgt id='63'> +5.8483528e+02 </wgt>
<wgt id='64'> +4.9584787e+02 </wgt>
<wgt id='65'> +3.6106028e+02 </wgt>
<wgt id='66'> +4.6767594e+02 </wgt>
<wgt id='67'> +4.8646575e+02 </wgt>
<wgt id='68'> +7.4066365e+02 </wgt>
<wgt id='69'> +5.9385588e+02 </wgt>
<wgt id='70'> +7.6580461e+02 </wgt>
<wgt id='71'> +4.6243462e+02 </wgt>
<wgt id='72'> +3.9029238e+02 </wgt>
<wgt id='73'> +3.2959182e+02 </wgt>
<wgt id='74'> +8.1578677e+02 </wgt>
<wgt id='75'> +4.9241139e+02 </wgt>
<wgt id='76'> +3.9862980e+02 </wgt>
<wgt id='77'> +3.8308700e+02 </wgt>
<wgt id='78'> +4.5746631e+02 </wgt>
<wgt id='79'> +4.8677083e+02 </wgt>
<wgt id='80'> +2.1642573e+02 </wgt>
<wgt id='81'> +5.7663184e+02 </wgt>
<wgt id='82'> +4.2172625e+02 </wgt>
<wgt id='83'> +5.3354559e+02 </wgt>
<wgt id='84'> +3.3609863e+02 </wgt>
<wgt id='85'> +4.6826793e+02 </wgt>
<wgt id='86'> +3.9241556e+02 </wgt>
<wgt id='87'> +4.0880123e+02 </wgt>
<wgt id='88'> +5.7442645e+02 </wgt>
<wgt id='89'> +2.5062240e+02 </wgt>
<wgt id='90'> +3.9906253e+02 </wgt>
<wgt id='91'> +3.3580765e+02 </wgt>
<wgt id='92'> +3.8540218e+02 </wgt>
<wgt id='93'> +5.5716640e+02 </wgt>
<wgt id='94'> +2.8348965e+02 </wgt>
<wgt id='95'> +5.6898852e+02 </wgt>
<wgt id='96'> +3.7279711e+02 </wgt>
<wgt id='97'> +4.0880651e+02 </wgt>
<wgt id='98'> +6.5408780e+02 </wgt>
<wgt id='99'> +3.7596532e+02 </wgt>
<wgt id='100'> +3.0374790e+02 </wgt>
<wgt id='101'> +7.9637790e+02 </wgt>
<wgt id='102'> +7.4712730e+02 </wgt>
<wgt id='103'> +4.5016740e+02 </wgt>
<wgt id='104'> +5.1604894e+02 </wgt>
<wgt id='105'> +5.9972591e+02 </wgt>
<wgt id='106'> +4.2315612e+02 </wgt>
<wgt id='107'> +5.1396312e+02 </wgt>
<wgt id='108'> +4.8467022e+02 </wgt>
<wgt id='109'> +6.1255199e+02 </wgt>
<wgt id='110'> +2.4659619e+02 </wgt>
<wgt id='111'> +4.8168699e+02 </wgt>
<wgt id='112'> +5.6279112e+02 </wgt>
<wgt id='113'> +6.4371848e+02 </wgt>
<wgt id='114'> +2.7155600e+02 </wgt>
<wgt id='115'> +3.9186855e+02 </wgt>
<wgt id='116'> +6.8673969e+02 </wgt>
<wgt id='117'> +5.9604484e+02 </wgt>
<wgt id='118'> +5.6634316e+02 </wgt>
<wgt id='119'> +5.3330118e+02 </wgt>
<wgt id='120'> +3.7231735e+02 </wgt>
<wgt id='121'> +4.8740122e+02 </wgt>
<wgt id='122'> +3.6302077e+02 </wgt>
<wgt id='123'> +4.2259549e+02 </wgt>
<wgt id='124'> +6.4662709e+02 </wgt>
<wgt id='125'> +1.0238485e+03 </wgt>
<wgt id='126'> +5.1260551e+02 </wgt>
<wgt id='127'> +5.0650094e+02 </wgt>
<wgt id='128'> +5.2628538e+02 </wgt>
<wgt id='129'> +4.9493656e+02 </wgt>
<wgt id='130'> +4.0635209e+02 </wgt>
<wgt id='131'> +3.1931603e+02 </wgt>
<wgt id='132'> +5.5093141e+02 </wgt>
<wgt id='133'> +4.6510673e+02 </wgt>
<wgt id='134'> +7.1598285e+02 </wgt>
<wgt id='135'> +4.6015228e+02 </wgt>
<wgt id='136'> +7.5215839e+02 </wgt>
<wgt id='137'> +5.1879791e+02 </wgt>
<wgt id='138'> +6.4194664e+02 </wgt>
<wgt id='139'> +5.4832348e+02 </wgt>
<wgt id='140'> +4.6263072e+02 </wgt>
<wgt id='141'> +7.5978895e+02 </wgt>
<wgt id='142'> +2.2401389e+02 </wgt>
<wgt id='143'> +6.2899487e+02 </wgt>
<wgt id='144'> +4.2085202e+02 </wgt>
<wgt id='145'> +3.7970515e+02 </wgt>
</rwgt>
</event>
<event>
 4      1 +5.0481800e+02 1.73996600e+02 7.54677100e-03 1.17374300e-01
       21 -1    0    0  503  502 +0.0000000000e+00 +0.0000000000e+00 +1.2016250964e+03 1.2016250964e+03 0.0000000000e+00 0.0000e+00 1.0000e+00
       21 -1    0    0  501  503 -0.0000000000e+00 -0.0000000000e+00 -3.0474688002e+01 3.0474688002e+01 0.0000000000e+00 0.0000e+00 1.0000e+00
        6  1    1    2  501    0 +1.0480698457e+01 -1.5361857654e+01 +8.4199658547e+02 8.5978664892e+02 1.7300000000e+02 0.0000e+00 1.0000e+00
       -6  1    1    2    0  502 -1.0480698457e+01 +1.5361857654e+01 +3.2915382296e+02 3.7231313552e+02 1.7300000000e+02 0.0000e+00 1.0000e+00
<mgrwt>
<rscale>  2 0.17399664E+03</rscale>
<asrwt>0</asrwt>
<pdfrwt beam="1">  1       21 0.18486536E+00 0.17399664E+03</pdfrwt>
<pdfrwt beam="2">  1       21 0.46884144E-02 0.17399664E+03</pdfrwt>
<totfact> 0.51202517E+04</totfact>
</mgrwt>
<rwgt>
<wgt id='1'> +6.6684157e+02 </wgt>
<wgt id='2'> +1.2737523e+03 </wgt>
<wgt id='3'> +5.0481800e+02 </wgt>
<wgt id='4'> +6.6684156e+02 </wgt>
<wgt id='5'> +4.8655433e+02 </wgt>
<wgt id='6'> +6.2243559e+02 </wgt>
<wgt id='7'> +1.2189639e+03 </wgt>
<wgt id='8'> +4.6293556e+02 </wgt>
<wgt id='9'> +6.2243558e+02 </wgt>
<wgt id='10'> +4.4580906e+02 </wgt>
<wgt id='11'> +5.7079496e+02 </wgt>
<wgt id='12'> +1.1484021e+03 </wgt>
<wgt id='13'> +4.2449149e+02 </wgt>
<wgt id='14'> +5.7079496e+02 </wgt>
<wgt id='15'> +4.0886830e+02 </wgt>
<wgt id='16'> +5.4083287e+02 </wgt>
<wgt id='17'> +9.7188544e+02 </wgt>
<wgt id='18'> +4.2367548e+02 </wgt>
<wgt id='19'> +5.4083287e+02 </wgt>
<wgt id='20'> +4.0955387e+02 </wgt>
<wgt id='21'> +9.3008137e+02 </wgt>
<wgt id='22'> +3.8852507e+02 </wgt>
<wgt id='23'> +5.0481800e+02 </wgt>
<wgt id='24'> +3.7525681e+02 </wgt>
<wgt id='25'> +4.6293557e+02 </wgt>
<wgt id='26'> +8.7624198e+02 </wgt>
<wgt id='27'> +3.5626035e+02 </wgt>
<wgt id='28'> +4.6293556e+02 </wgt>
<wgt id='29'> +3.4416217e+02 </wgt>
<wgt id='30'> +4.5390146e+02 </wgt>
<wgt id='31'> +7.6590901e+02 </wgt>
<wgt id='32'> +3.6092265e+02 </wgt>
<wgt id='33'> +4.5390145e+02 </wgt>
<wgt id='34'> +3.4949990e+02 </wgt>
<wgt id='35'> +4.2367548e+02 </wgt>
<wgt id='36'> +7.3296468e+02 </wgt>
<wgt id='37'> +3.3097855e+02 </wgt>
<wgt id='38'> +4.2367548e+02 </wgt>
<wgt id='39'> +3.2023191e+02 </wgt>
<wgt id='40'> +3.8852507e+02 </wgt>
<wgt id='41'> +6.9053574e+02 </wgt>
<wgt id='42'> +3.0349273e+02 </wgt>
<wgt id='43'> +3.8852507e+02 </wgt>
<wgt id='44'> +2.9369676e+02 </wgt>
<wgt id='45'> +5.0481800e+02 </wgt>
<wgt id='46'> +5.1885113e+02 </wgt>
<wgt id='47'> +5.1788309e+02 </wgt>
<wgt id='48'> +5.0354030e+02 </wgt>
<wgt id='49'> +4.7090563e+02 </wgt>
<wgt id='50'> +5.8476963e+02 </wgt>
<wgt id='51'> +4.7776714e+02 </wgt>
<wgt id='52'> +4.7888451e+02 </wgt>
<wgt id='53'> +5.0235582e+02 </wgt>
<wgt id='54'> +5.3352917e+02 </wgt>
<wgt id='55'> +5.5766264e+02 </wgt>
<wgt id='56'> +4.8196835e+02 </wgt>
<wgt id='57'> +5.3512771e+02 </wgt>
<wgt id='58'> +4.6471648e+02 </wgt>
<wgt id='59'> +5.4879090e+02 </wgt>
<wgt id='60'> +5.1076938e+02 </wgt>
<wgt id='61'> +4.4876969e+02 </wgt>
<wgt id='62'> +4.7044512e+02 </wgt>
<wgt id='63'> +5.2927518e+02 </wgt>
<wgt id='64'> +5.0600407e+02 </wgt>
<wgt id='65'> +4.6913859e+02 </wgt>
<wgt id='66'> +5.0836440e+02 </wgt>
<wgt id='67'> +5.0723132e+02 </wgt>
<wgt id='68'> +5.9997530e+02 </wgt>
<wgt id='69'> +5.3556891e+02 </wgt>
<wgt id='70'> +5.3511351e+02 </wgt>
<wgt id='71'> +4.7562362e+02 </wgt>
<wgt id='72'> +4.7111797e+02 </wgt>
<wgt id='73'> +4.6286976e+02 </wgt>
<wgt id='74'> +5.7014957e+02 </wgt>
<wgt id='75'> +5.4087064e+02 </wgt>
<wgt id='76'> +5.1788893e+02 </wgt>
<wgt id='77'> +4.8307577e+02 </wgt>
<wgt id='78'> +4.4175173e+02 </wgt>
<wgt id='79'> +5.3599118e+02 </wgt>
<wgt id='80'> +4.5487982e+02 </wgt>
<wgt id='81'> +5.1852320e+02 </wgt>
<wgt id='82'> +4.9167681e+02 </wgt>
<wgt id='83'> +4.9590725e+02 </wgt>
<wgt id='84'> +4.9560669e+02 </wgt>
<wgt id='85'> +4.6394362e+02 </wgt>
<wgt id='86'> +5.2496308e+02 </wgt>
<wgt id='87'> +5.0071208e+02 </wgt>
<wgt id='88'> +4.9009249e+02 </wgt>
<wgt id='89'> +4.4530516e+02 </wgt>
<wgt id='90'> +4.7999015e+02 </wgt>
<wgt id='91'> +4.5084930e+02 </wgt>
<wgt id='92'> +4.7483993e+02 </wgt>
<wgt id='93'> +5.0988351e+02 </wgt>
<wgt id='94'> +4.6769690e+02 </wgt>
<wgt id='95'> +5.3005666e+02 </wgt>
<wgt id='96'> +5.2538711e+02 </wgt>
<wgt id='97'> +4.6351002e+02 </wgt>
<wgt id='98'> +5.3465890e+02 </wgt>
<wgt id='99'> +4.3474433e+02 </wgt>
<wgt id='100'> +4.0010606e+02 </wgt>
<wgt id='101'> +5.8313614e+02 </wgt>
<wgt id='102'> +5.6143299e+02 </wgt>
<wgt id='103'> +4.9080405e+02 </wgt>
<wgt id='104'> +5.3295397e+02 </wgt>
<wgt id='105'> +5.1778154e+02 </wgt>
<wgt id='106'> +4.8935692e+02 </wgt>
<wgt id='107'> +4.8682763e+02 </wgt>
<wgt id='108'> +4.7122906e+02 </wgt>
<wgt id='109'> +4.9940223e+02 </wgt>
<wgt id='110'> +4.7224005e+02 </wgt>
<wgt id='111'> +4.9193306e+02 </wgt>
<wgt id='112'> +5.2089490e+02 </wgt>
<wgt id='113'> +5.2253026e+02 </wgt>
<wgt id='114'> +5.2121479e+02 </wgt>
<wgt id='115'> +4.6157836e+02 </wgt>
<wgt id='116'> +5.4820560e+02 </wgt>
<wgt id='117'> +4.9261688e+02 </wgt>
<wgt id='118'> +5.2182895e+02 </wgt>
<wgt id='119'> +5.4659779e+02 </wgt>
<wgt id='120'> +5.0358918e+02 </wgt>
<wgt id='121'> +5.0142829e+02 </wgt>
<wgt id='122'> +4.9598131e+02 </wgt>
<wgt id='123'> +4.8467933e+02 </wgt>
<wgt id='124'> +5.6665807e+02 </wgt>
<wgt id='125'> +6.1947980e+02 </wgt>
<wgt id='126'> +4.9702580e+02 </wgt>
<wgt id='127'> +4.8815474e+02 </wgt>
<wgt id='128'> +4.8130591e+02 </wgt>
<wgt id='129'> +5.2013055e+02 </wgt>
<wgt id='130'> +4.8492134e+02 </wgt>
<wgt id='131'> +4.7225201e+02 </wgt>
<wgt id='132'> +5.5416922e+02 </wgt>
<wgt id='133'> +5.4679490e+02 </wgt>
<wgt id='134'> +5.2744612e+02 </wgt>
<wgt id='135'> +4.8673640e+02 </wgt>
<wgt id='136'> +5.8965663e+02 </wgt>
<wgt id='137'> +5.1999570e+02 </wgt>
<wgt id='138'> +5.0890705e+02 </wgt>
<wgt id='139'> +5.2094389e+02 </wgt>
<wgt id='140'> +4.9402068e+02 </wgt>
<wgt id='141'> +5.6073367e+02 </wgt>
<wgt id='142'> +3.7522148e+02 </wgt>
<wgt id='143'> +5.1994331e+02 </wgt>
<wgt id='144'> +4.6569873e+02 </wgt>
<wgt id='145'> +4.6886086e+02 </wgt>
</rwgt>
</event>
<event>
 4      1 +5.0481800e+02 1.93735500e+02 7.54677100e-03 1.15513500e-01
       -2 -1    0    0    0  501 -0.0000000000e+00 +0.0000000000e+00 +3.8069158967e+01 3.8069158967e+01 0.0000000000e+00 0.0000e+00 -1.0000e+00
        2 -1    0    0  502    0 +0.0000000000e+00 -0.0000000000e+00 -1.0446049102e+03 1.0446049102e+03 0.0000000000e+00 0.0000e+00 1.0000e+00
        6  1    1    2  502    0 -2.2982110232e+00 +8.7173126940e+01 -3.7496786850e+02 4.2205963825e+02 1.7300000000e+02 0.0000e+00 -1.0000e+00
       -6  1    1    2    0  501 +2.2982110232e+00 -8.7173126940e+01 -6.3156788278e+02 6.6061443096e+02 1.7300000000e+02 0.0000e+00 1.0000e+00
<mgrwt>
<rscale>  2 0.19373548E+03</rscale>
<asrwt>0</asrwt>
<pdfrwt beam="2">  1        2 0.16070846E+00 0.19373548E+03</pdfrwt>
<pdfrwt beam="1">  1       -2 0.58567934E-02 0.19373548E+03</pdfrwt>
<totfact> 0.37551664E+03</totfact>
</mgrwt>
<rwgt>
<wgt id='1'> +6.0706002e+02 </wgt>
<wgt id='2'> +6.1401816e+02 </wgt>
<wgt id='3'> +5.0481800e+02 </wgt>
<wgt id='4'> +6.0706002e+02 </wgt>
<wgt id='5'> +5.0132825e+02 </wgt>
<wgt id='6'> +6.1930300e+02 </wgt>
<wgt id='7'> +6.2671648e+02 </wgt>
<wgt id='8'> +5.1109584e+02 </wgt>
<wgt id='9'> +6.1930300e+02 </wgt>
<wgt id='10'> +5.0741921e+02 </wgt>
<wgt id='11'> +6.2700456e+02 </wgt>
<wgt id='12'> +6.3476809e+02 </wgt>
<wgt id='13'> +5.1436669e+02 </wgt>
<wgt id='14'> +6.2700456e+02 </wgt>
<wgt id='15'> +5.1055596e+02 </wgt>
<wgt id='16'> +4.9483827e+02 </wgt>
<wgt id='17'> +4.9954828e+02 </wgt>
<wgt id='18'> +4.2507306e+02 </wgt>
<wgt id='19'> +4.9483827e+02 </wgt>
<wgt id='20'> +4.2244474e+02 </wgt>
<wgt id='21'> +5.0987929e+02 </wgt>
<wgt id='22'> +4.3035921e+02 </wgt>
<wgt id='23'> +5.0481800e+02 </wgt>
<wgt id='24'> +4.2757730e+02 </wgt>
<wgt id='25'> +5.1109584e+02 </wgt>
<wgt id='26'> +5.1642986e+02 </wgt>
<wgt id='27'> +4.3311337e+02 </wgt>
<wgt id='28'> +5.1109584e+02 </wgt>
<wgt id='29'> +4.3022048e+02 </wgt>
<wgt id='30'> +4.1666981e+02 </wgt>
<wgt id='31'> +4.2014310e+02 </wgt>
<wgt id='32'> +3.6282450e+02 </wgt>
<wgt id='33'> +4.1666981e+02 </wgt>
<wgt id='34'> +3.6076954e+02 </wgt>
<wgt id='35'> +4.2507306e+02 </wgt>
<wgt id='36'> +4.2883195e+02 </wgt>
<wgt id='37'> +3.6733653e+02 </wgt>
<wgt id='38'> +4.2507306e+02 </wgt>
<wgt id='39'> +3.6515276e+02 </wgt>
<wgt id='40'> +4.3035921e+02 </wgt>
<wgt id='41'> +4.3434128e+02 </wgt>
<wgt id='42'> +3.6968737e+02 </wgt>
<wgt id='43'> +4.3035921e+02 </wgt>
<wgt id='44'> +3.6741005e+02 </wgt>
<wgt id='45'> +5.0481800e+02 </wgt>
<wgt id='46'> +5.0309611e+02 </wgt>
<wgt id='47'> +4.8777330e+02 </wgt>
<wgt id='48'> +4.9702587e+02 </wgt>
<wgt id='49'> +4.9898588e+02 </wgt>
<wgt id='50'> +4.6207439e+02 </wgt>
<wgt id='51'> +5.1169730e+02 </wgt>
<wgt id='52'> +4.9361640e+02 </wgt>
<wgt id='53'> +5.2090031e+02 </wgt>
<wgt id='54'> +4.9602607e+02 </wgt>
<wgt id='55'> +4.8717019e+02 </wgt>
<wgt id='56'> +5.3890172e+02 </wgt>
<wgt id='57'> +4.9341984e+02 </wgt>
<wgt id='58'> +5.2511850e+02 </wgt>
<wgt id='59'> +4.7247896e+02 </wgt>
<wgt id='60'> +5.0737661e+02 </wgt>
<wgt id='61'> +5.5773673e+02 </wgt>
<wgt id='62'> +5.2205650e+02 </wgt>
<wgt id='63'> +5.0419457e+02 </wgt>
<wgt id='64'> +5.0307263e+02 </wgt>
<wgt id='65'> +5.0513197e+02 </wgt>
<wgt id='66'> +5.2113139e+02 </wgt>
<wgt id='67'> +5.1048623e+02 </wgt>
<wgt id='68'> +4.2650892e+02 </wgt>
<wgt id='69'> +4.7579381e+02 </wgt>
<wgt id='70'> +4.9094317e+02 </wgt>
<wgt id='71'> +5.2078593e+02 </wgt>
<wgt id='72'> +5.3255314e+02 </wgt>
<wgt id='73'> +5.2014205e+02 </wgt>
<wgt id='74'> +4.5201617e+02 </wgt>
<wgt id='75'> +4.7766511e+02 </wgt>
<wgt id='76'> +5.2822752e+02 </wgt>
<wgt id='77'> +5.2336287e+02 </wgt>
<wgt id='78'> +5.3851376e+02 </wgt>
<wgt id='79'> +5.0854392e+02 </wgt>
<wgt id='80'> +5.5095490e+02 </wgt>
<wgt id='81'> +5.1031449e+02 </wgt>
<wgt id='82'> +5.0773427e+02 </wgt>
<wgt id='83'> +4.9198761e+02 </wgt>
<wgt id='84'> +5.0056320e+02 </wgt>
<wgt id='85'> +5.0293163e+02 </wgt>
<wgt id='86'> +4.9427044e+02 </wgt>
<wgt id='87'> +5.0857915e+02 </wgt>
<wgt id='88'> +5.0837613e+02 </wgt>
<wgt id='89'> +5.0305275e+02 </wgt>
<wgt id='90'> +5.3602212e+02 </wgt>
<wgt id='91'> +4.8172668e+02 </wgt>
<wgt id='92'> +5.4247789e+02 </wgt>
<wgt id='93'> +4.8769688e+02 </wgt>
<wgt id='94'> +5.0702003e+02 </wgt>
<wgt id='95'> +5.0031543e+02 </wgt>
<wgt id='96'> +4.8743494e+02 </wgt>
<wgt id='97'> +5.2639972e+02 </wgt>
<wgt id='98'> +5.1259521e+02 </wgt>
<wgt id='99'> +5.3249990e+02 </wgt>
<wgt id='100'> +5.5582433e+02 </wgt>
<wgt id='101'> +4.3565831e+02 </wgt>
<wgt id='102'> +4.6656959e+02 </wgt>
<wgt id='103'> +4.7953785e+02 </wgt>
<wgt id='104'> +4.8815499e+02 </wgt>
<wgt id='105'> +5.0572976e+02 </wgt>
<wgt id='106'> +5.4333702e+02 </wgt>
<wgt id='107'> +5.0608590e+02 </wgt>
<wgt id='108'> +5.6900506e+02 </wgt>
<wgt id='109'> +5.2950139e+02 </wgt>
<wgt id='110'> +5.2452948e+02 </wgt>
<wgt id='111'> +5.3366653e+02 </wgt>
<wgt id='112'> +5.2280651e+02 </wgt>
<wgt id='113'> +5.0792846e+02 </wgt>
<wgt id='114'> +5.1162526e+02 </wgt>
<wgt id='115'> +5.3722009e+02 </wgt>
<wgt id='116'> +4.7453469e+02 </wgt>
<wgt id='117'> +5.0581968e+02 </wgt>
<wgt id='118'> +4.7150630e+02 </wgt>
<wgt id='119'> +5.0340419e+02 </wgt>
<wgt id='120'> +5.0694070e+02 </wgt>
<wgt id='121'> +5.0753251e+02 </wgt>
<wgt id='122'> +5.2123037e+02 </wgt>
<wgt id='123'> +5.4193055e+02 </wgt>
<wgt id='124'> +4.6217534e+02 </wgt>
<wgt id='125'> +4.3355542e+02 </wgt>
<wgt id='126'> +5.0030214e+02 </wgt>
<wgt id='127'> +4.9326976e+02 </wgt>
<wgt id='128'> +5.1850841e+02 </wgt>
<wgt id='129'> +4.7287222e+02 </wgt>
<wgt id='130'> +4.9804157e+02 </wgt>
<wgt id='131'> +4.9752137e+02 </wgt>
<wgt id='132'> +4.6928474e+02 </wgt>
<wgt id='133'> +4.8188279e+02 </wgt>
<wgt id='134'> +4.9854586e+02 </wgt>
<wgt id='135'> +4.9762266e+02 </wgt>
<wgt id='136'> +4.7919759e+02 </wgt>
<wgt id='137'> +5.2152405e+02 </wgt>
<wgt id='138'> +5.1561311e+02 </wgt>
<wgt id='139'> +4.8697426e+02 </wgt>
<wgt id='140'> +4.9916588e+02 </wgt>
<wgt id='141'> +4.7882774e+02 </wgt>
<wgt id='142'> +5.6657341e+02 </wgt>
<wgt id='143'> +5.2044607e+02 </wgt>
<wgt id='144'> +5.4186882e+02 </wgt>
<wgt id='145'> +5.1856154e+02 </wgt>
</rwgt>
</event>
<event>
 4      1 +5.0481800e+02 2.03831700e+02 7.54677100e-03 1.14654600e-01
       21 -1    0    0  503  502 +0.0000000000e+00 +0.0000000000e+00 +2.4395820047e+02 2.4395820047e+02 0.0000000000e+00 0.0000e+00 1.0000e+00
       21 -1    0    0  501  503 -0.0000000000e+00 -0.0000000000e+00 -3.8108555008e+02 3.8108555008e+02 0.0000000000e+00 0.0000e+00 1.0000e+00
        6  1    1    2  501    0 -7.3272228207e+01 +7.9054032192e+01 -3.0098940405e+02 3.6351338460e+02 1.7300000000e+02 0.0000e+00 1.0000e+00
       -6  1    1    2    0  502 +7.3272228207e+01 -7.9054032192e+01 +1.6386205443e+02 2.6153036595e+02 1.7300000000e+02 0.0000e+00 1.0000e+00
<mgrwt>
<rscale>  2 0.20383169E+03</rscale>
<asrwt>0</asrwt>
<pdfrwt beam="1">  1       21 0.37532031E-01 0.20383169E+03</pdfrwt>
<pdfrwt beam="2">  1       21 0.58628546E-01 0.20383169E+03</pdfrwt>
<totfact> 0.18515078E+04</totfact>
</mgrwt>
<rwgt>
<wgt id='1'> +6.6329699e+02 </wgt>
<wgt id='2'> +5.9565270e+02 </wgt>
<wgt id='3'> +5.0481800e+02 </wgt>
<wgt id='4'> +6.6329698e+02 </wgt>
<wgt id='5'> +4.3428951e+02 </wgt>
<wgt id='6'> +6.1765130e+02 </wgt>
<wgt id='7'> +5.5068779e+02 </wgt>
<wgt id='8'> +4.6370135e+02 </wgt>
<wgt id='9'> +6.1765130e+02 </wgt>
<wgt id='10'> +3.9936602e+02 </wgt>
<wgt id='11'> +5.6734456e+02 </wgt>
<wgt id='12'> +5.0622871e+02 </wgt>
<wgt id='13'> +4.2675938e+02 </wgt>
<wgt id='14'> +5.6734455e+02 </wgt>
<wgt id='15'> +3.6800832e+02 </wgt>
<wgt id='16'> +5.4212508e+02 </wgt>
<wgt id='17'> +4.9383559e+02 </wgt>
<wgt id='18'> +4.2559584e+02 </wgt>
<wgt id='19'> +5.4212507e+02 </wgt>
<wgt id='20'> +3.6904338e+02 </wgt>
<wgt id='21'> +4.5655670e+02 </wgt>
<wgt id='22'> +3.9093171e+02 </wgt>
<wgt id='23'> +5.0481800e+02 </wgt>
<wgt id='24'> +3.3936668e+02 </wgt>
<wgt id='25'> +4.6370136e+02 </wgt>
<wgt id='26'> +4.1969717e+02 </wgt>
<wgt id='27'> +3.5978713e+02 </wgt>
<wgt id='28'> +4.6370135e+02 </wgt>
<wgt id='29'> +3.1272005e+02 </wgt>
<wgt id='30'> +4.5704824e+02 </wgt>
<wgt id='31'> +4.1853929e+02 </wgt>
<wgt id='32'> +3.6360414e+02 </wgt>
<wgt id='33'> +4.5704823e+02 </wgt>
<wgt id='34'> +3.1746897e+02 </wgt>
<wgt id='35'> +4.2559584e+02 </wgt>
<wgt id='36'> +3.8694440e+02 </wgt>
<wgt id='37'> +3.3398915e+02 </wgt>
<wgt id='38'> +4.2559584e+02 </wgt>
<wgt id='39'> +2.9193964e+02 </wgt>
<wgt id='40'> +3.9093172e+02 </wgt>
<wgt id='41'> +3.5570494e+02 </wgt>
<wgt id='42'> +3.0738104e+02 </wgt>
<wgt id='43'> +3.9093171e+02 </wgt>
<wgt id='44'> +2.6901691e+02 </wgt>
<wgt id='45'> +5.0481800e+02 </wgt>
<wgt id='46'> +5.1265961e+02 </wgt>
<wgt id='47'> +5.2744436e+02 </wgt>
<wgt id='48'> +5.1117943e+02 </wgt>
<wgt id='49'> +5.0304588e+02 </wgt>
<wgt id='50'> +6.1294228e+02 </wgt>
<wgt id='51'> +4.9488555e+02 </wgt>
<wgt id='52'> +5.0399037e+02 </wgt>
<wgt id='53'> +5.0459297e+02 </wgt>
<wgt id='54'> +5.0801735e+02 </wgt>
<wgt id='55'> +4.4926875e+02 </wgt>
<wgt id='56'> +4.6025831e+02 </wgt>
<wgt id='57'> +4.9138464e+02 </wgt>
<wgt id='58'> +5.0089610e+02 </wgt>
<wgt id='59'> +5.0618376e+02 </wgt>
<wgt id='60'> +4.9170619e+02 </wgt>
<wgt id='61'> +4.7450362e+02 </wgt>
<wgt id='62'> +4.9948190e+02 </wgt>
<wgt id='63'> +5.0522937e+02 </wgt>
<wgt id='64'> +4.9297242e+02 </wgt>
<wgt id='65'> +5.9570364e+02 </wgt>
<wgt id='66'> +4.9404324e+02 </wgt>
<wgt id='67'> +5.0926227e+02 </wgt>
<wgt id='68'> +5.5115820e+02 </wgt>
<wgt id='69'> +5.0171295e+02 </wgt>
<wgt id='70'> +4.9462325e+02 </wgt>
<wgt id='71'> +5.1404500e+02 </wgt>
<wgt id='72'> +4.7688337e+02 </wgt>
<wgt id='73'> +4.9413261e+02 </wgt>
<wgt id='74'> +5.2893383e+02 </wgt>
<wgt id='75'> +5.1832876e+02 </wgt>
<wgt id='76'> +4.8796396e+02 </wgt>
<wgt id='77'> +4.9083691e+02 </wgt>
<wgt id='78'> +4.9596002e+02 </wgt>
<wgt id='79'> +4.8874917e+02 </wgt>
<wgt id='80'> +4.9700888e+02 </wgt>
<wgt id='81'> +4.9214029e+02 </wgt>
<wgt id='82'> +5.1351772e+02 </wgt>
<wgt id='83'> +5.1937753e+02 </wgt>
<wgt id='84'> +5.5951306e+02 </wgt>
<wgt id='85'> +5.3155225e+02 </wgt>
<wgt id='86'> +5.0634626e+02 </wgt>
<wgt id='87'> +5.0775811e+02 </wgt>
<wgt id='88'> +5.1573597e+02 </wgt>
<wgt id='89'> +5.2074697e+02 </wgt>
<wgt id='90'> +5.1366838e+02 </wgt>
<wgt id='91'> +5.3500833e+02 </wgt>
<wgt id='92'> +4.4973245e+02 </wgt>
<wgt id='93'> +5.0040530e+02 </wgt>
<wgt id='94'> +4.9622400e+02 </wgt>
<wgt id='95'> +4.8086193e+02 </wgt>
<wgt id='96'> +5.5651092e+02 </wgt>
<wgt id='97'> +5.0785963e+02 </wgt>
<wgt id='98'> +4.8296053e+02 </wgt>
<wgt id='99'> +4.8633064e+02 </wgt>
<wgt id='100'> +4.8704699e+02 </wgt>
<wgt id='101'> +5.4740346e+02 </wgt>
<wgt id='102'> +5.0387463e+02 </wgt>
<wgt id='103'> +5.5582927e+02 </wgt>
<wgt id='104'> +5.0812982e+02 </wgt>
<wgt id='105'> +5.1982017e+02 </wgt>
<wgt id='106'> +4.5097677e+02 </wgt>
<wgt id='107'> +4.8525198e+02 </wgt>
<wgt id='108'> +4.3879644e+02 </wgt>
<wgt id='109'> +4.6604726e+02 </wgt>
<wgt id='110'> +5.0309228e+02 </wgt>
<wgt id='111'> +4.8679943e+02 </wgt>
<wgt id='112'> +4.7385230e+02 </wgt>
<wgt id='113'> +4.5657486e+02 </wgt>
<wgt id='114'> +4.9072933e+02 </wgt>
<wgt id='115'> +4.9149391e+02 </wgt>
<wgt id='116'> +5.1629839e+02 </wgt>
<wgt id='117'> +5.0659467e+02 </wgt>
<wgt id='118'> +5.2844505e+02 </wgt>
<wgt id='119'> +4.8116195e+02 </wgt>
<wgt id='120'> +4.9410500e+02 </wgt>
<wgt id='121'> +4.8661285e+02 </wgt>
<wgt id='122'> +4.9664844e+02 </wgt>
<wgt id='123'> +5.1417779e+02 </wgt>
<wgt id='124'> +5.5368398e+02 </wgt>
<wgt id='125'> +5.5371824e+02 </wgt>
<wgt id='126'> +5.2923381e+02 </wgt>
<wgt id='127'> +5.2408176e+02 </wgt>
<wgt id='128'> +4.6050388e+02 </wgt>
<wgt id='129'> +5.7726884e+02 </wgt>
<wgt id='130'> +5.1068121e+02 </wgt>
<wgt id='131'> +5.4054661e+02 </wgt>
<wgt id='132'> +5.0850175e+02 </wgt>
<wgt id='133'> +5.1010045e+02 </wgt>
<wgt id='134'> +4.7626627e+02 </wgt>
<wgt id='135'> +5.1795181e+02 </wgt>
<wgt id='136'> +4.9113366e+02 </wgt>
<wgt id='137'> +4.7808450e+02 </wgt>
<wgt id='138'> +4.6772541e+02 </wgt>
<wgt id='139'> +5.1934645e+02 </wgt>
<wgt id='140'> +5.3210727e+02 </wgt>
<wgt id='141'> +5.0689134e+02 </wgt>
<wgt id='142'> +4.9683124e+02 </wgt>
<wgt id='143'> +5.0513719e+02 </wgt>
<wgt id='144'> +4.9830318e+02 </wgt>
<wgt id='145'> +5.0613128e+02 </wgt>
</rwgt>
</event>
<event>
 4      1 +5.0481800e+02 1.78806900e+02 7.54677100e-03 1.16896300e-01
       21 -1    0    0  501  502 +0.0000000000e+00 +0.0000000000e+00 +1.1135634512e+03 1.1135634512e+03 0.0000000000e+00 0.0000e+00 1.0000e+00
       21 -1    0    0  502  503 -0.0000000000e+00 -0.0000000000e+00 -5.4986893311e+01 5.4986893311e+01 0.0000000000e+00 0.0000e+00 1.0000e+00
        6  1    1    2  501    0 +3.4220419334e+01 -2.9527681683e+01 +9.3317875330e+02 9.5015499088e+02 1.7300000000e+02 0.0000e+00 1.0000e+00
       -6  1    1    2    0  503 -3.4220419334e+01 +2.9527681683e+01 +1.2539780455e+02 2.1839535359e+02 1.7300000000e+02 0.0000e+00 1.0000e+00
<mgrwt>
<rscale>  2 0.17880694E+03</rscale>
<asrwt>0</asrwt>
<pdfrwt beam="1">  1       21 0.17131744E+00 0.17880694E+03</pdfrwt>
<pdfrwt beam="2">  1       21 0.84595229E-02 0.17880694E+03</pdfrwt>
<totfact> 0.22962082E+04</totfact>
</mgrwt>
<rwgt>
<wgt id='1'> +6.7316591e+02 </wgt>
<wgt id='2'> +8.0125413e+02 </wgt>
<wgt id='3'> +5.0481800e+02 </wgt>
<wgt id='4'> +6.7316591e+02 </wgt>
<wgt id='5'> +4.4388851e+02 </wgt>
<wgt id='6'> +6.2163547e+02 </wgt>
<wgt id='7'> +7.4250068e+02 </wgt>
<wgt id='8'> +4.5875071e+02 </wgt>
<wgt id='9'> +6.2163547e+02 </wgt>
<wgt id='10'> +4.0344325e+02 </wgt>
<wgt id='11'> +5.6490797e+02 </wgt>
<wgt id='12'> +6.8054357e+02 </wgt>
<wgt id='13'> +4.1742447e+02 </wgt>
<wgt id='14'> +5.6490797e+02 </wgt>
<wgt id='15'> +3.6752513e+02 </wgt>
<wgt id='16'> +5.4666486e+02 </wgt>
<wgt id='17'> +6.4130428e+02 </wgt>
<wgt id='18'> +4.2405966e+02 </wgt>
<wgt id='19'> +5.4666487e+02 </wgt>
<wgt id='20'> +3.7566027e+02 </wgt>
<wgt id='21'> +5.9427945e+02 </wgt>
<wgt id='22'> +3.8536199e+02 </wgt>
<wgt id='23'> +5.0481800e+02 </wgt>
<wgt id='24'> +3.4143168e+02 </wgt>
<wgt id='25'> +4.5875071e+02 </wgt>
<wgt id='26'> +5.4469049e+02 </wgt>
<wgt id='27'> +3.5064692e+02 </wgt>
<wgt id='28'> +4.5875071e+02 </wgt>
<wgt id='29'> +3.1103438e+02 </wgt>
<wgt id='30'> +4.5921206e+02 </wgt>
<wgt id='31'> +5.2886391e+02 </wgt>
<wgt id='32'> +3.6143179e+02 </wgt>
<wgt id='33'> +4.5921206e+02 </wgt>
<wgt id='34'> +3.2203329e+02 </wgt>
<wgt id='35'> +4.2405966e+02 </wgt>
<wgt id='36'> +4.9008398e+02 </wgt>
<wgt id='37'> +3.2844925e+02 </wgt>
<wgt id='38'> +4.2405966e+02 </wgt>
<wgt id='39'> +2.9269096e+02 </wgt>
<wgt id='40'> +3.8536199e+02 </wgt>
<wgt id='41'> +4.4918949e+02 </wgt>
<wgt id='42'> +2.9886112e+02 </wgt>
<wgt id='43'> +3.8536199e+02 </wgt>
<wgt id='44'> +2.6663300e+02 </wgt>
<wgt id='45'> +5.0481800e+02 </wgt>
<wgt id='46'> +5.1913219e+02 </wgt>
<wgt id='47'> +5.1885784e+02 </wgt>
<wgt id='48'> +5.0451634e+02 </wgt>
<wgt id='49'> +4.7438034e+02 </wgt>
<wgt id='50'> +5.9585472e+02 </wgt>
<wgt id='51'> +4.7937425e+02 </wgt>
<wgt id='52'> +4.8445274e+02 </wgt>
<wgt id='53'> +5.0127426e+02 </wgt>
<wgt id='54'> +5.3072698e+02 </wgt>
<wgt id='55'> +5.3989701e+02 </wgt>
<wgt id='56'> +4.7467924e+02 </wgt>
<wgt id='57'> +5.3067607e+02 </wgt>
<wgt id='58'> +4.6819090e+02 </wgt>
<wgt id='59'> +5.4535642e+02 </wgt>
<wgt id='60'> +5.0738505e+02 </wgt>
<wgt id='61'> +4.5220537e+02 </wgt>
<wgt id='62'> +4.7459743e+02 </wgt>
<wgt id='63'> +5.2472665e+02 </wgt>
<wgt id='64'> +5.0326889e+02 </wgt>
<wgt id='65'> +4.9161472e+02 </wgt>
<wgt id='66'> +5.0548881e+02 </wgt>
<wgt id='67'> +5.0733361e+02 </wgt>
<wgt id='68'> +5.9287929e+02 </wgt>
<wgt id='69'> +5.3022649e+02 </wgt>
<wgt id='70'> +5.2572489e+02 </wgt>
<wgt id='71'> +4.8326274e+02 </wgt>
<wgt id='72'> +4.7325547e+02 </wgt>
<wgt id='73'> +4.6524667e+02 </wgt>
<wgt id='74'> +5.6339336e+02 </wgt>
<wgt id='75'> +5.3518296e+02 </wgt>
<wgt id='76'> +5.1484521e+02 </wgt>
<wgt id='77'> +4.8504428e+02 </wgt>
<wgt id='78'> +4.4808146e+02 </wgt>
<wgt id='79'> +5.2693601e+02 </wgt>
<wgt id='80'> +4.6148176e+02 </wgt>
<wgt id='81'> +5.1265958e+02 </wgt>
<wgt id='82'> +4.8989466e+02 </wgt>
<wgt id='83'> +4.9971883e+02 </wgt>
<wgt id='84'> +5.0769757e+02 </wgt>
<wgt id='85'> +4.7316193e+02 </wgt>
<wgt id='86'> +5.2133290e+02 </wgt>
<wgt id='87'> +5.0243125e+02 </wgt>
<wgt id='88'> +4.9387202e+02 </wgt>
<wgt id='89'> +4.5831515e+02 </wgt>
<wgt id='90'> +4.8738537e+02 </wgt>
<wgt id='91'> +4.6370301e+02 </wgt>
<wgt id='92'> +4.7036531e+02 </wgt>
<wgt id='93'> +5.0736420e+02 </wgt>
<wgt id='94'> +4.7071508e+02 </wgt>
<wgt id='95'> +5.2520811e+02 </wgt>
<wgt id='96'> +5.2974031e+02 </wgt>
<wgt id='97'> +4.7015539e+02 </wgt>
<wgt id='98'> +5.2589869e+02 </wgt>
<wgt id='99'> +4.4061385e+02 </wgt>
<wgt id='100'> +4.1034804e+02 </wgt>
<wgt id='101'> +5.8136919e+02 </wgt>
<wgt id='102'> +5.5486494e+02 </wgt>
<wgt id='103'> +5.0247249e+02 </wgt>
<wgt id='104'> +5.2965014e+02 </wgt>
<wgt id='105'> +5.1932344e+02 </wgt>
<wgt id='106'> +4.8106797e+02 </wgt>
<wgt id='107'> +4.8279054e+02 </wgt>
<wgt id='108'> +4.6375987e+02 </wgt>
<wgt id='109'> +4.9359250e+02 </wgt>
<wgt id='110'> +4.7688229e+02 </wgt>
<wgt id='111'> +4.9229808e+02 </wgt>
<wgt id='112'> +5.1228314e+02 </wgt>
<wgt id='113'> +5.0832049e+02 </wgt>
<wgt id='114'> +5.1649571e+02 </wgt>
<wgt id='115'> +4.6448088e+02 </wgt>
<wgt id='116'> +5.4457533e+02 </wgt>
<wgt id='117'> +4.9338588e+02 </wgt>
<wgt id='118'> +5.2495032e+02 </wgt>
<wgt id='119'> +5.3533860e+02 </wgt>
<wgt id='120'> +5.0328017e+02 </wgt>
<wgt id='121'> +5.0081850e+02 </wgt>
<wgt id='122'> +4.9668072e+02 </wgt>
<wgt id='123'> +4.9047280e+02 </wgt>
<wgt id='124'> +5.6901826e+02 </wgt>
<wgt id='125'> +6.1119072e+02 </wgt>
<wgt id='126'> +5.0132147e+02 </wgt>
<wgt id='127'> +4.9431410e+02 </wgt>
<wgt id='128'> +4.7546086e+02 </wgt>
<wgt id='129'> +5.3198010e+02 </wgt>
<wgt id='130'> +4.8571412e+02 </wgt>
<wgt id='131'> +4.8283569e+02 </wgt>
<wgt id='132'> +5.5145380e+02 </wgt>
<wgt id='133'> +5.4225354e+02 </wgt>
<wgt id='134'> +5.1938982e+02 </wgt>
<wgt id='135'> +4.9122762e+02 </wgt>
<wgt id='136'> +5.7808417e+02 </wgt>
<wgt id='137'> +5.1147450e+02 </wgt>
<wgt id='138'> +5.0199901e+02 </wgt>
<wgt id='139'> +5.2058793e+02 </wgt>
<wgt id='140'> +4.9881765e+02 </wgt>
<wgt id='141'> +5.5177153e+02 </wgt>
<wgt id='142'> +3.9286106e+02 </wgt>
<wgt id='143'> +5.1942400e+02 </wgt>
<wgt id='144'> +4.6998122e+02 </wgt>
<wgt id='145'> +4.7477582e+02 </wgt>
</rwgt>
</event>
<event>
 4      1 +5.0481800e+02 2.53825200e+02 7.54677100e-03 1.11091100e-01
       21 -1    0    0  501  502 +0.0000000000e+00 +0.0000000000e+00 +9.2396134389e+02 9.2396134389e+02 0.0000000000e+00 0.0000e+00 -1.0000e+00
       21 -1    0    0  502  503 -0.0000000000e+00 -0.0000000000e+00 -7.1337264637e+01 7.1337264637e+01 0.0000000000e+00 0.0000e+00 -1.0000e+00
        6  1    1    2  501    0 +2.0062152806e+01 +1.8465035184e+02 +5.0102466010e+02 5.6165198516e+02 1.7300000000e+02 0.0000e+00 -1.0000e+00
       -6  1    1    2    0  503 -2.0062152806e+01 -1.8465035184e+02 +3.5159941916e+02 4.3364662337e+02 1.7300000000e+02 0.0000e+00 -1.0000e+00
<mgrwt>
<rscale>  2 0.25382522E+03</rscale>
<asrwt>0</asrwt>
<pdfrwt beam="1">  1       21 0.14214789E+00 0.25382522E+03</pdfrwt>
<pdfrwt beam="2">  1       21 0.10974964E-01 0.25382522E+03</pdfrwt>
<totfact> 0.22841232E+04</totfact>
</mgrwt>
<rwgt>
<wgt id='1'> +6.6245526e+02 </wgt>
<wgt id='2'> +5.5439201e+02 </wgt>
<wgt id='3'> +5.0481800e+02 </wgt>
<wgt id='4'> +6.6245526e+02 </wgt>
<wgt id='5'> +5.0263763e+02 </wgt>
<wgt id='6'> +6.1038912e+02 </wgt>
<wgt id='7'> +5.0676262e+02 </wgt>
<wgt id='8'> +4.6171340e+02 </wgt>
<wgt id='9'> +6.1038912e+02 </wgt>
<wgt id='10'> +4.5973013e+02 </wgt>
<wgt id='11'> +5.5827019e+02 </wgt>
<wgt id='12'> +4.6400560e+02 </wgt>
<wgt id='13'> +4.2306154e+02 </wgt>
<wgt id='14'> +5.5827019e+02 </wgt>
<wgt id='15'> +4.2125911e+02 </wgt>
<wgt id='16'> +5.4787893e+02 </wgt>
<wgt id='17'> +4.6712957e+02 </wgt>
<wgt id='18'> +4.2744109e+02 </wgt>
<wgt id='19'> +5.4787893e+02 </wgt>
<wgt id='20'> +4.2569130e+02 </wgt>
<wgt id='21'> +4.2699714e+02 </wgt>
<wgt id='22'> +3.9094343e+02 </wgt>
<wgt id='23'> +5.0481800e+02 </wgt>
<wgt id='24'> +3.8935230e+02 </wgt>
<wgt id='25'> +4.6171340e+02 </wgt>
<wgt id='26'> +3.9097017e+02 </wgt>
<wgt id='27'> +3.5821600e+02 </wgt>
<wgt id='28'> +4.6171340e+02 </wgt>
<wgt id='29'> +3.5677062e+02 </wgt>
<wgt id='30'> +4.6390177e+02 </wgt>
<wgt id='31'> +3.9891155e+02 </wgt>
<wgt id='32'> +3.6658208e+02 </wgt>
<wgt id='33'> +4.6390177e+02 </wgt>
<wgt id='34'> +3.6515218e+02 </wgt>
<wgt id='35'> +4.2744109e+02 </wgt>
<wgt id='36'> +3.6463992e+02 </wgt>
<wgt id='37'> +3.3528095e+02 </wgt>
<wgt id='38'> +4.2744109e+02 </wgt>
<wgt id='39'> +3.3398109e+02 </wgt>
<wgt id='40'> +3.9094343e+02 </wgt>
<wgt id='41'> +3.3387421e+02 </wgt>
<wgt id='42'> +3.0721325e+02 </wgt>
<wgt id='43'> +3.9094343e+02 </wgt>
<wgt id='44'> +3.0603297e+02 </wgt>
<wgt id='45'> +5.0481800e+02 </wgt>
<wgt id='46'> +5.1888365e+02 </wgt>
<wgt id='47'> +5.1931025e+02 </wgt>
<wgt id='48'> +5.0653071e+02 </wgt>
<wgt id='49'> +4.8310998e+02 </wgt>
<wgt id='50'> +5.9961582e+02 </wgt>
<wgt id='51'> +4.8486745e+02 </wgt>
<wgt id='52'> +4.9319153e+02 </wgt>
<wgt id='53'> +4.9912262e+02 </wgt>
<wgt id='54'> +5.2383916e+02 </wgt>
<wgt id='55'> +5.1527208e+02 </wgt>
<wgt id='56'> +4.6805610e+02 </wgt>
<wgt id='57'> +5.2200925e+02 </wgt>
<wgt id='58'> +4.7725788e+02 </wgt>
<wgt id='59'> +5.3814102e+02 </wgt>
<wgt id='60'> +5.0688569e+02 </wgt>
<wgt id='61'> +4.4502165e+02 </wgt>
<wgt id='62'> +4.8347496e+02 </wgt>
<wgt id='63'> +5.1696078e+02 </wgt>
<wgt id='64'> +4.9959247e+02 </wgt>
<wgt id='65'> +5.1893062e+02 </wgt>
<wgt id='66'> +5.0210826e+02 </wgt>
<wgt id='67'> +5.0703185e+02 </wgt>
<wgt id='68'> +5.7720714e+02 </wgt>
<wgt id='69'> +5.2081359e+02 </wgt>
<wgt id='70'> +5.1338474e+02 </wgt>
<wgt id='71'> +4.9451281e+02 </wgt>
<wgt id='72'> +4.7800771e+02 </wgt>
<wgt id='73'> +4.7375674e+02 </wgt>
<wgt id='74'> +5.5104998e+02 </wgt>
<wgt id='75'> +5.2626879e+02 </wgt>
<wgt id='76'> +5.0883617e+02 </wgt>
<wgt id='77'> +4.9047531e+02 </wgt>
<wgt id='78'> +4.6118548e+02 </wgt>
<wgt id='79'> +5.1579195e+02 </wgt>
<wgt id='80'> +4.7358562e+02 </wgt>
<wgt id='81'> +5.0472474e+02 </wgt>
<wgt id='82'> +4.8895093e+02 </wgt>
<wgt id='83'> +5.0444227e+02 </wgt>
<wgt id='84'> +5.2138334e+02 </wgt>
<wgt id='85'> +4.8877983e+02 </wgt>
<wgt id='86'> +5.1573980e+02 </wgt>
<wgt id='87'> +5.0524888e+02 </wgt>
<wgt id='88'> +4.9964288e+02 </wgt>
<wgt id='89'> +4.8040950e+02 </wgt>
<wgt id='90'> +4.9949021e+02 </wgt>
<wgt id='91'> +4.8457870e+02 </wgt>
<wgt id='92'> +4.6610360e+02 </wgt>
<wgt id='93'> +5.0572758e+02 </wgt>
<wgt id='94'> +4.7778467e+02 </wgt>
<wgt id='95'> +5.1564853e+02 </wgt>
<wgt id='96'> +5.3298182e+02 </wgt>
<wgt id='97'> +4.8143630e+02 </wgt>
<wgt id='98'> +5.1341731e+02 </wgt>
<wgt id='99'> +4.5577332e+02 </wgt>
<wgt id='100'> +4.3317484e+02 </wgt>
<wgt id='101'> +5.7316156e+02 </wgt>
<wgt id='102'> +5.4281167e+02 </wgt>
<wgt id='103'> +5.1864154e+02 </wgt>
<wgt id='104'> +5.2219155e+02 </wgt>
<wgt id='105'> +5.1927408e+02 </wgt>
<wgt id='106'> +4.7227640e+02 </wgt>
<wgt id='107'> +4.7988065e+02 </wgt>
<wgt id='108'> +4.5659727e+02 </wgt>
<wgt id='109'> +4.8681923e+02 </wgt>
<wgt id='110'> +4.8592949e+02 </wgt>
<wgt id='111'> +4.9250211e+02 </wgt>
<wgt id='112'> +4.9818199e+02 </wgt>
<wgt id='113'> +4.9137805e+02 </wgt>
<wgt id='114'> +5.0634533e+02 </wgt>
<wgt id='115'> +4.6991861e+02 </wgt>
<wgt id='116'> +5.3702494e+02 </wgt>
<wgt id='117'> +4.9493437e+02 </wgt>
<wgt id='118'> +5.2800130e+02 </wgt>
<wgt id='119'> +5.1726837e+02 </wgt>
<wgt id='120'> +5.0013584e+02 </wgt>
<wgt id='121'> +4.9974351e+02 </wgt>
<wgt id='122'> +4.9810143e+02 </wgt>
<wgt id='123'> +4.9854179e+02 </wgt>
<wgt id='124'> +5.6589392e+02 </wgt>
<wgt id='125'> +5.9151470e+02 </wgt>
<wgt id='126'> +5.0886982e+02 </wgt>
<wgt id='127'> +5.0393806e+02 </wgt>
<wgt id='128'> +4.6862000e+02 </wgt>
<wgt id='129'> +5.4441837e+02 </wgt>
<wgt id='130'> +4.9089537e+02 </wgt>
<wgt id='131'> +4.9913061e+02 </wgt>
<wgt id='132'> +5.4449307e+02 </wgt>
<wgt id='133'> +5.3370062e+02 </wgt>
<wgt id='134'> +5.0894721e+02 </wgt>
<wgt id='135'> +4.9890060e+02 </wgt>
<wgt id='136'> +5.5702791e+02 </wgt>
<wgt id='137'> +5.0085053e+02 </wgt>
<wgt id='138'> +4.9362340e+02 </wgt>
<wgt id='139'> +5.2025171e+02 </wgt>
<wgt id='140'> +5.0529843e+02 </wgt>
<wgt id='141'> +5.3589333e+02 </wgt>
<wgt id='142'> +4.2657158e+02 </wgt>
<wgt id='143'> +5.1856951e+02 </wgt>
<wgt id='144'> +4.7905328e+02 </wgt>
<wgt id='145'> +4.8562685e+02 </wgt>
</rwgt>
</event>
<event>
 4      1 +5.0481800e+02 1.99647800e+02 7.54677100e-03 1.15003600e-01
       21 -1    0    0  503  502 +0.0000000000e+00 +0.0000000000e+00 +5.3113342906e+02 5.3113342906e+02 0.0000000000e+00 0.0000e+00 -1.0000e+00
       21 -1    0    0  501  503 -0.0000000000e+00 -0.0000000000e+00 -1.1878065317e+02 1.1878065317e+02 0.0000000000e+00 0.0000e+00 -1.0000e+00
        6  1    1    2  501    0 +1.9566755411e+01 +9.7710790838e+01 +8.9942147055e+00 1.9985032515e+02 1.7300000000e+02 0.0000e+00 -1.0000e+00
       -6  1    1    2    0  502 -1.9566755411e+01 -9.7710790838e+01 +4.0335856118e+02 4.5006375709e+02 1.7300000000e+02 0.0000e+00 -1.0000e+00
<mgrwt>
<rscale>  2 0.19964783E+03</rscale>
<asrwt>0</asrwt>
<pdfrwt beam="1">  1       21 0.81712834E-01 0.19964783E+03</pdfrwt>
<pdfrwt beam="2">  1       21 0.18273947E-01 0.19964783E+03</pdfrwt>
<totfact> 0.35655560E+04</totfact>
</mgrwt>
<rwgt>
<wgt id='1'> +6.5661709e+02 </wgt>
<wgt id='2'> +5.5661507e+02 </wgt>
<wgt id='3'> +5.0481800e+02 </wgt>
<wgt id='4'> +6.5661709e+02 </wgt>
<wgt id='5'> +4.6440792e+02 </wgt>
<wgt id='6'> +6.1834782e+02 </wgt>
<wgt id='7'> +5.1773445e+02 </wgt>
<wgt id='8'> +4.6799891e+02 </wgt>
<wgt id='9'> +6.1834782e+02 </wgt>
<wgt id='10'> +4.3064355e+02 </wgt>
<wgt id='11'> +5.7324839e+02 </wgt>
<wgt id='12'> +4.8018077e+02 </wgt>
<wgt id='13'> +4.3420051e+02 </wgt>
<wgt id='14'> +5.7324839e+02 </wgt>
<wgt id='15'> +3.9969281e+02 </wgt>
<wgt id='16'> +5.3606096e+02 </wgt>
<wgt id='17'> +4.6480165e+02 </wgt>
<wgt id='18'> +4.2539700e+02 </wgt>
<wgt id='19'> +5.3606096e+02 </wgt>
<wgt id='20'> +3.9314280e+02 </wgt>
<wgt id='21'> +4.3233437e+02 </wgt>
<wgt id='22'> +3.9437051e+02 </wgt>
<wgt id='23'> +5.0481800e+02 </wgt>
<wgt id='24'> +3.6455969e+02 </wgt>
<wgt id='25'> +4.6799891e+02 </wgt>
<wgt id='26'> +4.0097516e+02 </wgt>
<wgt id='27'> +3.6588948e+02 </wgt>
<wgt id='28'> +4.6799891e+02 </wgt>
<wgt id='29'> +3.3835846e+02 </wgt>
<wgt id='30'> +4.5172463e+02 </wgt>
<wgt id='31'> +3.9502248e+02 </wgt>
<wgt id='32'> +3.6329836e+02 </wgt>
<wgt id='33'> +4.5172463e+02 </wgt>
<wgt id='34'> +3.3710668e+02 </wgt>
<wgt id='35'> +4.2539700e+02 </wgt>
<wgt id='36'> +3.6742940e+02 </wgt>
<wgt id='37'> +3.3680106e+02 </wgt>
<wgt id='38'> +4.2539700e+02 </wgt>
<wgt id='39'> +3.1259763e+02 </wgt>
<wgt id='40'> +3.9437051e+02 </wgt>
<wgt id='41'> +3.4077805e+02 </wgt>
<wgt id='42'> +3.1247763e+02 </wgt>
<wgt id='43'> +3.9437051e+02 </wgt>
<wgt id='44'> +2.9013095e+02 </wgt>
<wgt id='45'> +5.0481800e+02 </wgt>
<wgt id='46'> +5.1235113e+02 </wgt>
<wgt id='47'> +5.2265039e+02 </wgt>
<wgt id='48'> +5.0887041e+02 </wgt>
<wgt id='49'> +4.9973823e+02 </wgt>
<wgt id='50'> +6.0082635e+02 </wgt>
<wgt id='51'> +4.9357070e+02 </wgt>
<wgt id='52'> +5.0355112e+02 </wgt>
<wgt id='53'> +5.0293563e+02 </wgt>
<wgt id='54'> +5.1056864e+02 </wgt>
<wgt id='55'> +4.6520788e+02 </wgt>
<wgt id='56'> +4.6277128e+02 </wgt>
<wgt id='57'> +4.9979216e+02 </wgt>
<wgt id='58'> +4.9908989e+02 </wgt>
<wgt id='59'> +5.1337716e+02 </wgt>
<wgt id='60'> +4.9616108e+02 </wgt>
<wgt id='61'> +4.5876389e+02 </wgt>
<wgt id='62'> +4.9682201e+02 </wgt>
<wgt id='63'> +5.0608236e+02 </wgt>
<wgt id='64'> +4.9571970e+02 </wgt>
<wgt id='65'> +5.7715044e+02 </wgt>
<wgt id='66'> +4.9482290e+02 </wgt>
<wgt id='67'> +5.0850636e+02 </wgt>
<wgt id='68'> +5.5192023e+02 </wgt>
<wgt id='69'> +5.0096140e+02 </wgt>
<wgt id='70'> +4.9714338e+02 </wgt>
<wgt id='71'> +5.1189924e+02 </wgt>
<wgt id='72'> +4.8506517e+02 </wgt>
<wgt id='73'> +4.9227124e+02 </wgt>
<wgt id='74'> +5.2939188e+02 </wgt>
<wgt id='75'> +5.1691646e+02 </wgt>
<wgt id='76'> +4.9430911e+02 </wgt>
<wgt id='77'> +4.9192749e+02 </wgt>
<wgt id='78'> +4.9101509e+02 </wgt>
<wgt id='79'> +4.9316282e+02 </wgt>
<wgt id='80'> +4.9422842e+02 </wgt>
<wgt id='81'> +4.9479715e+02 </wgt>
<wgt id='82'> +5.0585696e+02 </wgt>
<wgt id='83'> +5.1384967e+02 </wgt>
<wgt id='84'> +5.4877903e+02 </wgt>
<wgt id='85'> +5.2179807e+02 </wgt>
<wgt id='86'> +5.0572816e+02 </wgt>
<wgt id='87'> +5.0729408e+02 </wgt>
<wgt id='88'> +5.1032701e+02 </wgt>
<wgt id='89'> +5.1435596e+02 </wgt>
<wgt id='90'> +5.1338070e+02 </wgt>
<wgt id='91'> +5.2557170e+02 </wgt>
<wgt id='92'> +4.5989532e+02 </wgt>
<wgt id='93'> +5.0040927e+02 </wgt>
<wgt id='94'> +4.9491585e+02 </wgt>
<wgt id='95'> +4.9144546e+02 </wgt>
<wgt id='96'> +5.4496398e+02 </wgt>
<wgt id='97'> +5.0432969e+02 </wgt>
<wgt id='98'> +4.8860661e+02 </wgt>
<wgt id='99'> +4.8292550e+02 </wgt>
<wgt id='100'> +4.8139257e+02 </wgt>
<wgt id='101'> +5.4829223e+02 </wgt>
<wgt id='102'> +5.0871097e+02 </wgt>
<wgt id='103'> +5.4691231e+02 </wgt>
<wgt id='104'> +5.0795416e+02 </wgt>
<wgt id='105'> +5.2180419e+02 </wgt>
<wgt id='106'> +4.6001745e+02 </wgt>
<wgt id='107'> +4.8655020e+02 </wgt>
<wgt id='108'> +4.4613626e+02 </wgt>
<wgt id='109'> +4.7337694e+02 </wgt>
<wgt id='110'> +5.0200734e+02 </wgt>
<wgt id='111'> +4.9050343e+02 </wgt>
<wgt id='112'> +4.7815035e+02 </wgt>
<wgt id='113'> +4.6495185e+02 </wgt>
<wgt id='114'> +4.9614558e+02 </wgt>
<wgt id='115'> +4.8816895e+02 </wgt>
<wgt id='116'> +5.1649403e+02 </wgt>
<wgt id='117'> +5.0384498e+02 </wgt>
<wgt id='118'> +5.2603897e+02 </wgt>
<wgt id='119'> +4.8882179e+02 </wgt>
<wgt id='120'> +4.9537995e+02 </wgt>
<wgt id='121'> +4.9245812e+02 </wgt>
<wgt id='122'> +4.9881660e+02 </wgt>
<wgt id='123'> +5.1004468e+02 </wgt>
<wgt id='124'> +5.5238074e+02 </wgt>
<wgt id='125'> +5.5556809e+02 </wgt>
<wgt id='126'> +5.2292966e+02 </wgt>
<wgt id='127'> +5.1944668e+02 </wgt>
<wgt id='128'> +4.6178990e+02 </wgt>
<wgt id='129'> +5.6918149e+02 </wgt>
<wgt id='130'> +5.0362863e+02 </wgt>
<wgt id='131'> +5.3212992e+02 </wgt>
<wgt id='132'> +5.1782870e+02 </wgt>
<wgt id='133'> +5.1259989e+02 </wgt>
<wgt id='134'> +4.8406434e+02 </wgt>
<wgt id='135'> +5.1436435e+02 </wgt>
<wgt id='136'> +5.0567119e+02 </wgt>
<wgt id='137'> +4.8077074e+02 </wgt>
<wgt id='138'> +4.6923714e+02 </wgt>
<wgt id='139'> +5.1844468e+02 </wgt>
<wgt id='140'> +5.2631325e+02 </wgt>
<wgt id='141'> +5.0964122e+02 </wgt>
<wgt id='142'> +4.8632697e+02 </wgt>
<wgt id='143'> +5.0925140e+02 </wgt>
<wgt id='144'> +4.9767704e+02 </wgt>
<wgt id='145'> +5.0366874e+02 </wgt>
</rwgt>
</event>
<event>
 4      1 +5.0481800e+02 1.96008000e+02 7.54677100e-03 1.15315100e-01
       21 -1    0    0  503  502 +0.0000000000e+00 +0.0000000000e+00 +9.1014065843e+01 9.1014065843e+01 0.0000000000e+00 0.0000e+00 1.0000e+00
       21 -1    0    0  501  503 -0.0000000000e+00 -0.0000000000e+00 -4.2374173580e+02 4.2374173580e+02 0.0000000000e+00 0.0000e+00 -1.0000e+00
        6  1    1    2  501    0 +8.5396425964e+01 -3.4605945558e+01 -1.8227209178e+02 2.6766067414e+02 1.7300000000e+02 0.0000e+00 -1.0000e+00
       -6  1    1    2    0  502 -8.5396425964e+01 +3.4605945558e+01 -1.5045557817e+02 2.4709512751e+02 1.7300000000e+02 0.0000e+00 1.0000e+00
<mgrwt>
<rscale>  2 0.19600796E+03</rscale>
<asrwt>0</asrwt>
<pdfrwt beam="1">  1       21 0.14002164E-01 0.19600796E+03</pdfrwt>
<pdfrwt beam="2">  1       21 0.65191035E-01 0.19600796E+03</pdfrwt>
<totfact> 0.96134268E+04</totfact>
</mgrwt>
<rwgt>
<wgt id='1'> +6.4490923e+02 </wgt>
<wgt id='2'> +5.9090560e+02 </wgt>
<wgt id='3'> +5.0481800e+02 </wgt>
<wgt id='4'> +6.4490923e+02 </wgt>
<wgt id='5'> +5.0448685e+02 </wgt>
<wgt id='6'> +6.1894169e+02 </wgt>
<wgt id='7'> +5.6263327e+02 </wgt>
<wgt id='8'> +4.7575888e+02 </wgt>
<wgt id='9'> +6.1894169e+02 </wgt>
<wgt id='10'> +4.7544085e+02 </wgt>
<wgt id='11'> +5.8331321e+02 </wgt>
<wgt id='12'> +5.3002478e+02 </wgt>
<wgt id='13'> +4.4794995e+02 </wgt>
<wgt id='14'> +5.8331321e+02 </wgt>
<wgt id='15'> +4.4764992e+02 </wgt>
<wgt id='16'> +5.2599751e+02 </wgt>
<wgt id='17'> +4.8830418e+02 </wgt>
<wgt id='18'> +4.2520435e+02 </wgt>
<wgt id='19'> +5.2599751e+02 </wgt>
<wgt id='20'> +4.2494625e+02 </wgt>
<wgt id='21'> +4.6494090e+02 </wgt>
<wgt id='22'> +4.0072808e+02 </wgt>
<wgt id='23'> +5.0481800e+02 </wgt>
<wgt id='24'> +4.0047983e+02 </wgt>
<wgt id='25'> +4.7575889e+02 </wgt>
<wgt id='26'> +4.3799435e+02 </wgt>
<wgt id='27'> +3.7730483e+02 </wgt>
<wgt id='28'> +4.7575888e+02 </wgt>
<wgt id='29'> +3.7707059e+02 </wgt>
<wgt id='30'> +4.4304369e+02 </wgt>
<wgt id='31'> +4.1332702e+02 </wgt>
<wgt id='32'> +3.6301314e+02 </wgt>
<wgt id='33'> +4.4304369e+02 </wgt>
<wgt id='34'> +3.6280535e+02 </wgt>
<wgt id='35'> +4.2520435e+02 </wgt>
<wgt id='36'> +3.9355108e+02 </wgt>
<wgt id='37'> +3.4211682e+02 </wgt>
<wgt id='38'> +4.2520435e+02 </wgt>
<wgt id='39'> +3.4191671e+02 </wgt>
<wgt id='40'> +4.0072808e+02 </wgt>
<wgt id='41'> +3.7074207e+02 </wgt>
<wgt id='42'> +3.2211950e+02 </wgt>
<wgt id='43'> +4.0072808e+02 </wgt>
<wgt id='44'> +3.2193066e+02 </wgt>
<wgt id='45'> +5.0481800e+02 </wgt>
<wgt id='46'> +5.0688016e+02 </wgt>
<wgt id='47'> +5.2020000e+02 </wgt>
<wgt id='48'> +5.0615758e+02 </wgt>
<wgt id='49'> +5.0228613e+02 </wgt>
<wgt id='50'> +5.8492404e+02 </wgt>
<wgt id='51'> +4.9488414e+02 </wgt>
<wgt id='52'> +5.0320744e+02 </wgt>
<wgt id='53'> +5.0697988e+02 </wgt>
<wgt id='54'> +5.0850702e+02 </wgt>
<wgt id='55'> +4.6121136e+02 </wgt>
<wgt id='56'> +4.6939017e+02 </wgt>
<wgt id='57'> +4.9650828e+02 </wgt>
<wgt id='58'> +5.0627373e+02 </wgt>
<wgt id='59'> +5.0485463e+02 </wgt>
<wgt id='60'> +4.9115102e+02 </wgt>
<wgt id='61'> +4.7937694e+02 </wgt>
<wgt id='62'> +4.9758475e+02 </wgt>
<wgt id='63'> +5.0549511e+02 </wgt>
<wgt id='64'> +4.9920768e+02 </wgt>
<wgt id='65'> +5.8059864e+02 </wgt>
<wgt id='66'> +4.9376655e+02 </wgt>
<wgt id='67'> +5.0888340e+02 </wgt>
<wgt id='68'> +5.4289170e+02 </wgt>
<wgt id='69'> +4.9345140e+02 </wgt>
<wgt id='70'> +4.9751623e+02 </wgt>
<wgt id='71'> +5.1342348e+02 </wgt>
<wgt id='72'> +4.9315780e+02 </wgt>
<wgt id='73'> +4.9713740e+02 </wgt>
<wgt id='74'> +5.2181648e+02 </wgt>
<wgt id='75'> +5.1484509e+02 </wgt>
<wgt id='76'> +4.9356607e+02 </wgt>
<wgt id='77'> +4.8941443e+02 </wgt>
<wgt id='78'> +4.9985826e+02 </wgt>
<wgt id='79'> +4.8872096e+02 </wgt>
<wgt id='80'> +4.9871734e+02 </wgt>
<wgt id='81'> +4.9636260e+02 </wgt>
<wgt id='82'> +5.1255072e+02 </wgt>
<wgt id='83'> +5.1227387e+02 </wgt>
<wgt id='84'> +5.4773570e+02 </wgt>
<wgt id='85'> +5.2522386e+02 </wgt>
<wgt id='86'> +5.0208664e+02 </wgt>
<wgt id='87'> +5.0561448e+02 </wgt>
<wgt id='88'> +5.1019618e+02 </wgt>
<wgt id='89'> +5.1516257e+02 </wgt>
<wgt id='90'> +5.1212323e+02 </wgt>
<wgt id='91'> +5.3090038e+02 </wgt>
<wgt id='92'> +4.6835585e+02 </wgt>
<wgt id='93'> +4.9763152e+02 </wgt>
<wgt id='94'> +5.0053896e+02 </wgt>
<wgt id='95'> +4.8967483e+02 </wgt>
<wgt id='96'> +5.4035892e+02 </wgt>
<wgt id='97'> +5.0940333e+02 </wgt>
<wgt id='98'> +4.8534333e+02 </wgt>
<wgt id='99'> +4.8863885e+02 </wgt>
<wgt id='100'> +4.9558802e+02 </wgt>
<wgt id='101'> +5.3469764e+02 </wgt>
<wgt id='102'> +4.9667845e+02 </wgt>
<wgt id='103'> +5.4475613e+02 </wgt>
<wgt id='104'> +5.0396111e+02 </wgt>
<wgt id='105'> +5.2427718e+02 </wgt>
<wgt id='106'> +4.6702251e+02 </wgt>
<wgt id='107'> +4.9598488e+02 </wgt>
<wgt id='108'> +4.5389697e+02 </wgt>
<wgt id='109'> +4.7676613e+02 </wgt>
<wgt id='110'> +5.0533173e+02 </wgt>
<wgt id='111'> +4.9253816e+02 </wgt>
<wgt id='112'> +4.8165691e+02 </wgt>
<wgt id='113'> +4.6705931e+02 </wgt>
<wgt id='114'> +5.0181981e+02 </wgt>
<wgt id='115'> +4.9759788e+02 </wgt>
<wgt id='116'> +5.0706555e+02 </wgt>
<wgt id='117'> +5.0756317e+02 </wgt>
<wgt id='118'> +5.1876628e+02 </wgt>
<wgt id='119'> +4.8861002e+02 </wgt>
<wgt id='120'> +4.9825781e+02 </wgt>
<wgt id='121'> +4.9350813e+02 </wgt>
<wgt id='122'> +4.9924408e+02 </wgt>
<wgt id='123'> +5.0902956e+02 </wgt>
<wgt id='124'> +5.4111038e+02 </wgt>
<wgt id='125'> +5.4327707e+02 </wgt>
<wgt id='126'> +5.2128675e+02 </wgt>
<wgt id='127'> +5.1824031e+02 </wgt>
<wgt id='128'> +4.6689581e+02 </wgt>
<wgt id='129'> +5.6728464e+02 </wgt>
<wgt id='130'> +5.0432373e+02 </wgt>
<wgt id='131'> +5.3553057e+02 </wgt>
<wgt id='132'> +5.0849677e+02 </wgt>
<wgt id='133'> +5.0497124e+02 </wgt>
<wgt id='134'> +4.8079503e+02 </wgt>
<wgt id='135'> +5.1586978e+02 </wgt>
<wgt id='136'> +4.9480315e+02 </wgt>
<wgt id='137'> +4.7758802e+02 </wgt>
<wgt id='138'> +4.6194875e+02 </wgt>
<wgt id='139'> +5.1540439e+02 </wgt>
<wgt id='140'> +5.3118755e+02 </wgt>
<wgt id='141'> +5.0541845e+02 </wgt>
<wgt id='142'> +5.0035567e+02 </wgt>
<wgt id='143'> +5.0520402e+02 </wgt>
<wgt id='144'> +5.0359584e+02 </wgt>
<wgt id='145'> +5.0511785e+02 </wgt>
</rwgt>
</event>
<event>
 4      1 +5.0481800e+02 1.79815900e+02 7.54677100e-03 1.16798100e-01
       21 -1    0    0  503  502 +0.0000000000e+00 +0.0000000000e+00 +1.4398025327e+03 1.4398025327e+03 0.0000000000e+00 0.0000e+00 -1.0000e+00
       21 -1    0    0  501  503 -0.0000000000e+00 -0.0000000000e+00 -3.8284321851e+01 3.8284321851e+01 0.0000000000e+00 0.0000e+00 -1.0000e+00
        6  1    1    2  501    0 +2.2243757450e+01 -4.3703407136e+01 +2.2557491202e+02 2.8847497894e+02 1.7300000000e+02 0.0000e+00 -1.0000e+00
       -6  1    1    2    0  502 -2.2243757450e+01 +4.3703407136e+01 +1.1759432988e+03 1.1896118756e+03 1.7300000000e+02 0.0000e+00 -1.0000e+00
<mgrwt>
<rscale>  2 0.17981594E+03</rscale>
<asrwt>0</asrwt>
<pdfrwt beam="1">  1       21 0.22150804E+00 0.17981594E+03</pdfrwt>
<pdfrwt beam="2">  1       21 0.58898968E-02 0.17981594E+03</pdfrwt>
<totfact> 0.20255527E+04</totfact>
</mgrwt>
<rwgt>
<wgt id='1'> +6.8423472e+02 </wgt>
<wgt id='2'> +8.5667705e+02 </wgt>
<wgt id='3'> +5.0481800e+02 </wgt>
<wgt id='4'> +6.8423472e+02 </wgt>
<wgt id='5'> +4.5146831e+02 </wgt>
<wgt id='6'> +6.2146278e+02 </wgt>
<wgt id='7'> +7.8036575e+02 </wgt>
<wgt id='8'> +4.5198329e+02 </wgt>
<wgt id='9'> +6.2146278e+02 </wgt>
<wgt id='10'> +4.0447814e+02 </wgt>
<wgt id='11'> +5.5641993e+02 </wgt>
<wgt id='12'> +7.0546016e+02 </wgt>
<wgt id='13'> +4.0582645e+02 </wgt>
<wgt id='14'> +5.5641992e+02 </wgt>
<wgt id='15'> +3.6370792e+02 </wgt>
<wgt id='16'> +5.5580803e+02 </wgt>
<wgt id='17'> +6.8369547e+02 </wgt>
<wgt id='18'> +4.2413618e+02 </wgt>
<wgt id='19'> +5.5580803e+02 </wgt>
<wgt id='20'> +3.8166916e+02 </wgt>
<wgt id='21'> +6.2279307e+02 </wgt>
<wgt id='22'> +3.7974571e+02 </wgt>
<wgt id='23'> +5.0481800e+02 </wgt>
<wgt id='24'> +3.4194389e+02 </wgt>
<wgt id='25'> +4.5198329e+02 </wgt>
<wgt id='26'> +5.6301253e+02 </wgt>
<wgt id='27'> +3.4096582e+02 </wgt>
<wgt id='28'> +4.5198329e+02 </wgt>
<wgt id='29'> +3.0747694e+02 </wgt>
<wgt id='30'> +4.6697680e+02 </wgt>
<wgt id='31'> +5.6144157e+02 </wgt>
<wgt id='32'> +3.6153426e+02 </wgt>
<wgt id='33'> +4.6697680e+02 </wgt>
<wgt id='34'> +3.2688707e+02 </wgt>
<wgt id='35'> +4.2413618e+02 </wgt>
<wgt id='36'> +5.1142934e+02 </wgt>
<wgt id='37'> +3.2369576e+02 </wgt>
<wgt id='38'> +4.2413618e+02 </wgt>
<wgt id='39'> +2.9286368e+02 </wgt>
<wgt id='40'> +3.7974571e+02 </wgt>
<wgt id='41'> +4.6233836e+02 </wgt>
<wgt id='42'> +2.9063973e+02 </wgt>
<wgt id='43'> +3.7974571e+02 </wgt>
<wgt id='44'> +2.6334387e+02 </wgt>
<wgt id='45'> +5.0481800e+02 </wgt>
<wgt id='46'> +5.1682759e+02 </wgt>
<wgt id='47'> +5.3158975e+02 </wgt>
<wgt id='48'> +5.0298839e+02 </wgt>
<wgt id='49'> +4.5844320e+02 </wgt>
<wgt id='50'> +5.8854411e+02 </wgt>
<wgt id='51'> +4.7197417e+02 </wgt>
<wgt id='52'> +4.5836558e+02 </wgt>
<wgt id='53'> +5.1507452e+02 </wgt>
<wgt id='54'> +5.3947009e+02 </wgt>
<wgt id='55'> +5.8549696e+02 </wgt>
<wgt id='56'> +4.8906572e+02 </wgt>
<wgt id='57'> +5.4063369e+02 </wgt>
<wgt id='58'> +4.4980611e+02 </wgt>
<wgt id='59'> +5.4923437e+02 </wgt>
<wgt id='60'> +5.0022460e+02 </wgt>
<wgt id='61'> +4.2685564e+02 </wgt>
<wgt id='62'> +4.5609526e+02 </wgt>
<wgt id='63'> +5.3739498e+02 </wgt>
<wgt id='64'> +5.0761622e+02 </wgt>
<wgt id='65'> +4.4099647e+02 </wgt>
<wgt id='66'> +5.1550164e+02 </wgt>
<wgt id='67'> +5.0874355e+02 </wgt>
<wgt id='68'> +6.3510656e+02 </wgt>
<wgt id='69'> +5.5926868e+02 </wgt>
<wgt id='70'> +5.6498071e+02 </wgt>
<wgt id='71'> +4.5872177e+02 </wgt>
<wgt id='72'> +4.5279957e+02 </wgt>
<wgt id='73'> +4.5199075e+02 </wgt>
<wgt id='74'> +5.9598895e+02 </wgt>
<wgt id='75'> +5.6627760e+02 </wgt>
<wgt id='76'> +5.2139990e+02 </wgt>
<wgt id='77'> +4.6793852e+02 </wgt>
<wgt id='78'> +4.2607687e+02 </wgt>
<wgt id='79'> +5.5223281e+02 </wgt>
<wgt id='80'> +4.3533066e+02 </wgt>
<wgt id='81'> +5.3343911e+02 </wgt>
<wgt id='82'> +5.0054770e+02 </wgt>
<wgt id='83'> +4.9720365e+02 </wgt>
<wgt id='84'> +4.8198391e+02 </wgt>
<wgt id='85'> +4.4445818e+02 </wgt>
<wgt id='86'> +5.3848716e+02 </wgt>
<wgt id='87'> +4.9300974e+02 </wgt>
<wgt id='88'> +4.9466563e+02 </wgt>
<wgt id='89'> +4.0448254e+02 </wgt>
<wgt id='90'> +4.5531351e+02 </wgt>
<wgt id='91'> +4.2313109e+02 </wgt>
<wgt id='92'> +4.7664173e+02 </wgt>
<wgt id='93'> +5.1335473e+02 </wgt>
<wgt id='94'> +4.5878170e+02 </wgt>
<wgt id='95'> +5.3237559e+02 </wgt>
<wgt id='96'> +5.2790272e+02 </wgt>
<wgt id='97'> +4.4805917e+02 </wgt>
<wgt id='98'> +5.5928474e+02 </wgt>
<wgt id='99'> +4.1114972e+02 </wgt>
<wgt id='100'> +3.6848488e+02 </wgt>
<wgt id='101'> +5.9244349e+02 </wgt>
<wgt id='102'> +5.7469013e+02 </wgt>
<wgt id='103'> +4.6669630e+02 </wgt>
<wgt id='104'> +5.4862904e+02 </wgt>
<wgt id='105'> +5.1624066e+02 </wgt>
<wgt id='106'> +4.9964523e+02 </wgt>
<wgt id='107'> +4.9706715e+02 </wgt>
<wgt id='108'> +4.7697525e+02 </wgt>
<wgt id='109'> +5.0272492e+02 </wgt>
<wgt id='110'> +4.5254039e+02 </wgt>
<wgt id='111'> +4.8740261e+02 </wgt>
<wgt id='112'> +5.3294830e+02 </wgt>
<wgt id='113'> +5.5171471e+02 </wgt>
<wgt id='114'> +5.2768277e+02 </wgt>
<wgt id='115'> +4.6430878e+02 </wgt>
<wgt id='116'> +5.6014418e+02 </wgt>
<wgt id='117'> +4.9730644e+02 </wgt>
<wgt id='118'> +5.1407081e+02 </wgt>
<wgt id='119'> +5.6581693e+02 </wgt>
<wgt id='120'> +5.0498695e+02 </wgt>
<wgt id='121'> +4.9004239e+02 </wgt>
<wgt id='122'> +4.9048982e+02 </wgt>
<wgt id='123'> +4.7243414e+02 </wgt>
<wgt id='124'> +5.6810438e+02 </wgt>
<wgt id='125'> +6.5416784e+02 </wgt>
<wgt id='126'> +4.8855259e+02 </wgt>
<wgt id='127'> +4.7350931e+02 </wgt>
<wgt id='128'> +4.9467909e+02 </wgt>
<wgt id='129'> +5.0325009e+02 </wgt>
<wgt id='130'> +5.0872110e+02 </wgt>
<wgt id='131'> +4.5195734e+02 </wgt>
<wgt id='132'> +5.5073910e+02 </wgt>
<wgt id='133'> +5.5603016e+02 </wgt>
<wgt id='134'> +5.3971664e+02 </wgt>
<wgt id='135'> +4.7714282e+02 </wgt>
<wgt id='136'> +6.0600241e+02 </wgt>
<wgt id='137'> +5.4603111e+02 </wgt>
<wgt id='138'> +5.2515501e+02 </wgt>
<wgt id='139'> +5.2087442e+02 </wgt>
<wgt id='140'> +4.8963837e+02 </wgt>
<wgt id='141'> +5.9349458e+02 </wgt>
<wgt id='142'> +3.2376785e+02 </wgt>
<wgt id='143'> +5.1526024e+02 </wgt>
<wgt id='144'> +4.5105586e+02 </wgt>
<wgt id='145'> +4.5794883e+02 </wgt>
</rwgt>
</event>
<event>
 4      1 +5.0481800e+02 1.99798600e+02 7.54677100e-03 1.14990900e-01
       21 -1    0    0  501  502 +0.0000000000e+00 +0.0000000000e+00 +2.7084134262e+02 2.7084134262e+02 0.0000000000e+00 0.0000e+00 -1.0000e+00
       21 -1    0    0  502  503 -0.0000000000e+00 -0.0000000000e+00 -1.7447681764e+02 1.7447681764e+02 0.0000000000e+00 0.0000e+00 -1.0000e+00
        6  1    1    2  501    0 -9.3341060056e+01 -3.5748296311e+01 +1.3591162056e+02 2.4164325520e+02 1.7300000000e+02 0.0000e+00 -1.0000e+00
       -6  1    1    2    0  503 +9.3341060056e+01 +3.5748296311e+01 -3.9547095577e+01 2.0367490506e+02 1.7300000000e+02 0.0000e+00 -1.0000e+00
<mgrwt>
<rscale>  2 0.19979863E+03</rscale>
<asrwt>0</asrwt>
<pdfrwt beam="1">  1       21 0.41667899E-01 0.19979863E+03</pdfrwt>
<pdfrwt beam="2">  1       21 0.26842587E-01 0.19979863E+03</pdfrwt>
<totfact> 0.73058470E+04</totfact>
</mgrwt>
<rwgt>
<wgt id='1'> +6.4714138e+02 </wgt>
<wgt id='2'> +5.3833262e+02 </wgt>
<wgt id='3'> +5.0481800e+02 </wgt>
<wgt id='4'> +6.4714137e+02 </wgt>
<wgt id='5'> +4.9029916e+02 </wgt>
<wgt id='6'> +6.1832291e+02 </wgt>
<wgt id='7'> +5.0669791e+02 </wgt>
<wgt id='8'> +4.7417337e+02 </wgt>
<wgt id='9'> +6.1832291e+02 </wgt>
<wgt id='10'> +4.6049894e+02 </wgt>
<wgt id='11'> +5.8078805e+02 </wgt>
<wgt id='12'> +4.7577910e+02 </wgt>
<wgt id='13'> +4.4522235e+02 </wgt>
<wgt id='14'> +5.8078804e+02 </wgt>
<wgt id='15'> +4.3238362e+02 </wgt>
<wgt id='16'> +5.2834629e+02 </wgt>
<wgt id='17'> +4.5106343e+02 </wgt>
<wgt id='18'> +4.2540456e+02 </wgt>
<wgt id='19'> +5.2834629e+02 </wgt>
<wgt id='20'> +4.1388075e+02 </wgt>
<wgt id='21'> +4.2455702e+02 </wgt>
<wgt id='22'> +3.9958067e+02 </wgt>
<wgt id='23'> +5.0481800e+02 </wgt>
<wgt id='24'> +3.8872522e+02 </wgt>
<wgt id='25'> +4.7417337e+02 </wgt>
<wgt id='26'> +3.9865047e+02 </wgt>
<wgt id='27'> +3.7518397e+02 </wgt>
<wgt id='28'> +4.7417337e+02 </wgt>
<wgt id='29'> +3.6499197e+02 </wgt>
<wgt id='30'> +4.4523159e+02 </wgt>
<wgt id='31'> +3.8392716e+02 </wgt>
<wgt id='32'> +3.6330976e+02 </wgt>
<wgt id='33'> +4.4523159e+02 </wgt>
<wgt id='34'> +3.5400023e+02 </wgt>
<wgt id='35'> +4.2540456e+02 </wgt>
<wgt id='36'> +3.6136597e+02 </wgt>
<wgt id='37'> +3.4125529e+02 </wgt>
<wgt id='38'> +4.2540456e+02 </wgt>
<wgt id='39'> +3.3248421e+02 </wgt>
<wgt id='40'> +3.9958067e+02 </wgt>
<wgt id='41'> +3.3931534e+02 </wgt>
<wgt id='42'> +3.2041969e+02 </wgt>
<wgt id='43'> +3.9958067e+02 </wgt>
<wgt id='44'> +3.1218471e+02 </wgt>
<wgt id='45'> +5.0481800e+02 </wgt>
<wgt id='46'> +5.0376229e+02 </wgt>
<wgt id='47'> +5.2256165e+02 </wgt>
<wgt id='48'> +5.0579533e+02 </wgt>
<wgt id='49'> +5.0407615e+02 </wgt>
<wgt id='50'> +5.8685554e+02 </wgt>
<wgt id='51'> +4.9515681e+02 </wgt>
<wgt id='52'> +5.0152941e+02 </wgt>
<wgt id='53'> +5.1205209e+02 </wgt>
<wgt id='54'> +5.0763261e+02 </wgt>
<wgt id='55'> +4.5022357e+02 </wgt>
<wgt id='56'> +4.7094241e+02 </wgt>
<wgt id='57'> +4.9063764e+02 </wgt>
<wgt id='58'> +5.0924110e+02 </wgt>
<wgt id='59'> +4.9536970e+02 </wgt>
<wgt id='60'> +4.8244901e+02 </wgt>
<wgt id='61'> +4.9519325e+02 </wgt>
<wgt id='62'> +4.9818602e+02 </wgt>
<wgt id='63'> +5.0526927e+02 </wgt>
<wgt id='64'> +5.0119643e+02 </wgt>
<wgt id='65'> +5.9716496e+02 </wgt>
<wgt id='66'> +4.9261760e+02 </wgt>
<wgt id='67'> +5.0942491e+02 </wgt>
<wgt id='68'> +5.3918341e+02 </wgt>
<wgt id='69'> +4.9132319e+02 </wgt>
<wgt id='70'> +4.9652902e+02 </wgt>
<wgt id='71'> +5.1447008e+02 </wgt>
<wgt id='72'> +4.9190802e+02 </wgt>
<wgt id='73'> +4.9878012e+02 </wgt>
<wgt id='74'> +5.1851134e+02 </wgt>
<wgt id='75'> +5.1590339e+02 </wgt>
<wgt id='76'> +4.8985176e+02 </wgt>
<wgt id='77'> +4.8539730e+02 </wgt>
<wgt id='78'> +5.0694081e+02 </wgt>
<wgt id='79'> +4.8312001e+02 </wgt>
<wgt id='80'> +5.0113539e+02 </wgt>
<wgt id='81'> +4.9581959e+02 </wgt>
<wgt id='82'> +5.1977853e+02 </wgt>
<wgt id='83'> +5.1520763e+02 </wgt>
<wgt id='84'> +5.5470540e+02 </wgt>
<wgt id='85'> +5.3203501e+02 </wgt>
<wgt id='86'> +5.0094154e+02 </wgt>
<wgt id='87'> +5.0437617e+02 </wgt>
<wgt id='88'> +5.1373789e+02 </wgt>
<wgt id='89'> +5.1644982e+02 </wgt>
<wgt id='90'> +5.0979874e+02 </wgt>
<wgt id='91'> +5.3816584e+02 </wgt>
<wgt id='92'> +4.6564105e+02 </wgt>
<wgt id='93'> +4.9548695e+02 </wgt>
<wgt id='94'> +5.0301935e+02 </wgt>
<wgt id='95'> +4.8388192e+02 </wgt>
<wgt id='96'> +5.4486785e+02 </wgt>
<wgt id='97'> +5.1360814e+02 </wgt>
<wgt id='98'> +4.8088570e+02 </wgt>
<wgt id='99'> +4.9082507e+02 </wgt>
<wgt id='100'> +5.0323108e+02 </wgt>
<wgt id='101'> +5.2749618e+02 </wgt>
<wgt id='102'> +4.8780076e+02 </wgt>
<wgt id='103'> +5.4765485e+02 </wgt>
<wgt id='104'> +5.0352923e+02 </wgt>
<wgt id='105'> +5.2531998e+02 </wgt>
<wgt id='106'> +4.6570244e+02 </wgt>
<wgt id='107'> +5.0057705e+02 </wgt>
<wgt id='108'> +4.5396483e+02 </wgt>
<wgt id='109'> +4.7499275e+02 </wgt>
<wgt id='110'> +5.0609890e+02 </wgt>
<wgt id='111'> +4.9209996e+02 </wgt>
<wgt id='112'> +4.8283835e+02 </wgt>
<wgt id='113'> +4.6393033e+02 </wgt>
<wgt id='114'> +5.0543931e+02 </wgt>
<wgt id='115'> +5.0872942e+02 </wgt>
<wgt id='116'> +5.0259854e+02 </wgt>
<wgt id='117'> +5.1273833e+02 </wgt>
<wgt id='118'> +5.1598255e+02 </wgt>
<wgt id='119'> +4.8531591e+02 </wgt>
<wgt id='120'> +5.0477574e+02 </wgt>
<wgt id='121'> +4.9072039e+02 </wgt>
<wgt id='122'> +4.9834850e+02 </wgt>
<wgt id='123'> +5.1130591e+02 </wgt>
<wgt id='124'> +5.3676780e+02 </wgt>
<wgt id='125'> +5.3806488e+02 </wgt>
<wgt id='126'> +5.2401952e+02 </wgt>
<wgt id='127'> +5.1938800e+02 </wgt>
<wgt id='128'> +4.7017099e+02 </wgt>
<wgt id='129'> +5.7126753e+02 </wgt>
<wgt id='130'> +5.0914760e+02 </wgt>
<wgt id='131'> +5.4133264e+02 </wgt>
<wgt id='132'> +4.9693077e+02 </wgt>
<wgt id='133'> +4.9980156e+02 </wgt>
<wgt id='134'> +4.7388030e+02 </wgt>
<wgt id='135'> +5.1799069e+02 </wgt>
<wgt id='136'> +4.8162631e+02 </wgt>
<wgt id='137'> +4.7488062e+02 </wgt>
<wgt id='138'> +4.5780263e+02 </wgt>
<wgt id='139'> +5.1375513e+02 </wgt>
<wgt id='140'> +5.3791612e+02 </wgt>
<wgt id='141'> +5.0356498e+02 </wgt>
<wgt id='142'> +5.1062772e+02 </wgt>
<wgt id='143'> +4.9908891e+02 </wgt>
<wgt id='144'> +5.0523460e+02 </wgt>
<wgt id='145'> +5.0600564e+02 </wgt>
</rwgt>
</event>
<event>
 4      1 +5.0481800e+02 1.82783400e+02 7.54677100e-03 1.16513600e-01
       21 -1    0    0  501  502 +0.0000000000e+00 +0.0000000000e+00 +4.1662825225e+01 4.1662825225e+01 0.0000000000e+00 0.0000e+00 -1.0000e+00
       21 -1    0    0  502  503 -0.0000000000e+00 -0.0000000000e+00 -1.2317870774e+03 1.2317870774e+03 0.0000000000e+00 0.0000e+00 -1.0000e+00
        6  1    1    2  501    0 -5.6100128026e+01 -1.8263250737e+01 -2.1891566099e+02 2.8519087875e+02 1.7300000000e+02 0.0000e+00 -1.0000e+00
       -6  1    1    2    0  503 +5.6100128026e+01 +1.8263250737e+01 -9.7120859121e+02 9.8825902390e+02 1.7300000000e+02 0.0000e+00 -1.0000e+00
<mgrwt>
<rscale>  2 0.18278340E+03</rscale>
<asrwt>0</asrwt>
<pdfrwt beam="1">  1       21 0.64096658E-02 0.18278340E+03</pdfrwt>
<pdfrwt beam="2">  1       21 0.18950569E+00 0.18278340E+03</pdfrwt>
<totfact> 0.27860082E+04</totfact>
</mgrwt>
<rwgt>
<wgt id='1'> +6.7363678e+02 </wgt>
<wgt id='2'> +7.7098005e+02 </wgt>
<wgt id='3'> +5.0481800e+02 </wgt>
<wgt id='4'> +6.7363678e+02 </wgt>
<wgt id='5'> +4.6338571e+02 </wgt>
<wgt id='6'> +6.2096329e+02 </wgt>
<wgt id='7'> +7.1295851e+02 </wgt>
<wgt id='8'> +4.5804235e+02 </wgt>
<wgt id='9'> +6.2096329e+02 </wgt>
<wgt id='10'> +4.2048270e+02 </wgt>
<wgt id='11'> +5.6342580e+02 </wgt>
<wgt id='12'> +6.5070854e+02 </wgt>
<wgt id='13'> +4.1626417e+02 </wgt>
<wgt id='14'> +5.6342580e+02 </wgt>
<wgt id='15'> +3.8243018e+02 </wgt>
<wgt id='16'> +5.4763941e+02 </wgt>
<wgt id='17'> +6.1949353e+02 </wgt>
<wgt id='18'> +4.2435376e+02 </wgt>
<wgt id='19'> +5.4763941e+02 </wgt>
<wgt id='20'> +3.9146482e+02 </wgt>
<wgt id='21'> +5.7287239e+02 </wgt>
<wgt id='22'> +3.8503380e+02 </wgt>
<wgt id='23'> +5.0481800e+02 </wgt>
<wgt id='24'> +3.5522067e+02 </wgt>
<wgt id='25'> +4.5804235e+02 </wgt>
<wgt id='26'> +5.2285364e+02 </wgt>
<wgt id='27'> +3.4991475e+02 </wgt>
<wgt id='28'> +4.5804235e+02 </wgt>
<wgt id='29'> +3.2307419e+02 </wgt>
<wgt id='30'> +4.6034975e+02 </wgt>
<wgt id='31'> +5.1379628e+02 </wgt>
<wgt id='32'> +3.6182783e+02 </wgt>
<wgt id='33'> +4.6034975e+02 </wgt>
<wgt id='34'> +3.3506865e+02 </wgt>
<wgt id='35'> +4.2435376e+02 </wgt>
<wgt id='36'> +4.7512959e+02 </wgt>
<wgt id='37'> +3.2830143e+02 </wgt>
<wgt id='38'> +4.2435376e+02 </wgt>
<wgt id='39'> +3.0404600e+02 </wgt>
<wgt id='40'> +3.8503380e+02 </wgt>
<wgt id='41'> +4.3364498e+02 </wgt>
<wgt id='42'> +2.9835696e+02 </wgt>
<wgt id='43'> +3.8503380e+02 </wgt>
<wgt id='44'> +2.7653068e+02 </wgt>
<wgt id='45'> +5.0481800e+02 </wgt>
<wgt id='46'> +5.1860148e+02 </wgt>
<wgt id='47'> +5.2093299e+02 </wgt>
<wgt id='48'> +5.0358064e+02 </wgt>
<wgt id='49'> +4.6860650e+02 </wgt>
<wgt id='50'> +5.9009376e+02 </wgt>
<wgt id='51'> +4.7650365e+02 </wgt>
<wgt id='52'> +4.7602208e+02 </wgt>
<wgt id='53'> +5.0485568e+02 </wgt>
<wgt id='54'> +5.3453924e+02 </wgt>
<wgt id='55'> +5.5863225e+02 </wgt>
<wgt id='56'> +4.8138060e+02 </wgt>
<wgt id='57'> +5.3536647e+02 </wgt>
<wgt id='58'> +4.6187383e+02 </wgt>
<wgt id='59'> +5.4811550e+02 </wgt>
<wgt id='60'> +5.0671334e+02 </wgt>
<wgt id='61'> +4.4585471e+02 </wgt>
<wgt id='62'> +4.6817436e+02 </wgt>
<wgt id='63'> +5.3016575e+02 </wgt>
<wgt id='64'> +5.0555250e+02 </wgt>
<wgt id='65'> +4.7004818e+02 </wgt>
<wgt id='66'> +5.0922652e+02 </wgt>
<wgt id='67'> +5.0783536e+02 </wgt>
<wgt id='68'> +6.0567738e+02 </wgt>
<wgt id='69'> +5.3947166e+02 </wgt>
<wgt id='70'> +5.3846515e+02 </wgt>
<wgt id='71'> +4.7420973e+02 </wgt>
<wgt id='72'> +4.6763784e+02 </wgt>
<wgt id='73'> +4.6027053e+02 </wgt>
<wgt id='74'> +5.7370481e+02 </wgt>
<wgt id='75'> +5.4441693e+02 </wgt>
<wgt id='76'> +5.1823340e+02 </wgt>
<wgt id='77'> +4.8010102e+02 </wgt>
<wgt id='78'> +4.3971538e+02 </wgt>
<wgt id='79'> +5.3657246e+02 </wgt>
<wgt id='80'> +4.5244568e+02 </wgt>
<wgt id='81'> +5.2010446e+02 </wgt>
<wgt id='82'> +4.9348288e+02 </wgt>
<wgt id='83'> +4.9741529e+02 </wgt>
<wgt id='84'> +4.9673748e+02 </wgt>
<wgt id='85'> +4.6188877e+02 </wgt>
<wgt id='86'> +5.2682949e+02 </wgt>
<wgt id='87'> +4.9951259e+02 </wgt>
<wgt id='88'> +4.9200633e+02 </wgt>
<wgt id='89'> +4.3968984e+02 </wgt>
<wgt id='90'> +4.7647785e+02 </wgt>
<wgt id='91'> +4.4818821e+02 </wgt>
<wgt id='92'> +4.7401056e+02 </wgt>
<wgt id='93'> +5.0948349e+02 </wgt>
<wgt id='94'> +4.6629276e+02 </wgt>
<wgt id='95'> +5.2973184e+02 </wgt>
<wgt id='96'> +5.2768403e+02 </wgt>
<wgt id='97'> +4.6190315e+02 </wgt>
<wgt id='98'> +5.3739127e+02 </wgt>
<wgt id='99'> +4.3036743e+02 </wgt>
<wgt id='100'> +3.9517381e+02 </wgt>
<wgt id='101'> +5.8516282e+02 </wgt>
<wgt id='102'> +5.6280216e+02 </wgt>
<wgt id='103'> +4.8870883e+02 </wgt>
<wgt id='104'> +5.3602481e+02 </wgt>
<wgt id='105'> +5.1811738e+02 </wgt>
<wgt id='106'> +4.8902241e+02 </wgt>
<wgt id='107'> +4.8747810e+02 </wgt>
<wgt id='108'> +4.7058592e+02 </wgt>
<wgt id='109'> +4.9846901e+02 </wgt>
<wgt id='110'> +4.6902675e+02 </wgt>
<wgt id='111'> +4.9133786e+02 </wgt>
<wgt id='112'> +5.2203661e+02 </wgt>
<wgt id='113'> +5.2421719e+02 </wgt>
<wgt id='114'> +5.2228225e+02 </wgt>
<wgt id='115'> +4.6300123e+02 </wgt>
<wgt id='116'> +5.5006387e+02 </wgt>
<wgt id='117'> +4.9372861e+02 </wgt>
<wgt id='118'> +5.2112141e+02 </wgt>
<wgt id='119'> +5.4830883e+02 </wgt>
<wgt id='120'> +5.0441664e+02 </wgt>
<wgt id='121'> +4.9900697e+02 </wgt>
<wgt id='122'> +4.9501122e+02 </wgt>
<wgt id='123'> +4.8388333e+02 </wgt>
<wgt id='124'> +5.6836466e+02 </wgt>
<wgt id='125'> +6.2515830e+02 </wgt>
<wgt id='126'> +4.9613869e+02 </wgt>
<wgt id='127'> +4.8650485e+02 </wgt>
<wgt id='128'> +4.8300471e+02 </wgt>
<wgt id='129'> +5.2017621e+02 </wgt>
<wgt id='130'> +4.8853738e+02 </wgt>
<wgt id='131'> +4.7050060e+02 </wgt>
<wgt id='132'> +5.5295188e+02 </wgt>
<wgt id='133'> +5.4773015e+02 </wgt>
<wgt id='134'> +5.2771529e+02 </wgt>
<wgt id='135'> +4.8560504e+02 </wgt>
<wgt id='136'> +5.9045790e+02 </wgt>
<wgt id='137'> +5.2291440e+02 </wgt>
<wgt id='138'> +5.1059610e+02 </wgt>
<wgt id='139'> +5.2056099e+02 </wgt>
<wgt id='140'> +4.9435901e+02 </wgt>
<wgt id='141'> +5.6552983e+02 </wgt>
<wgt id='142'> +3.6832611e+02 </wgt>
<wgt id='143'> +5.1874285e+02 </wgt>
<wgt id='144'> +4.6336206e+02 </wgt>
<wgt id='145'> +4.6778470e+02 </wgt>
</rwgt>
</event>
<event>
 4      1 +5.0481800e+02 2.27535100e+02 7.54677100e-03 1.12838700e-01
       21 -1    0    0  501  502 +0.0000000000e+00 +0.0000000000e+00 +2.8555146626e+02 2.8555146626e+02 0.0000000000e+00 0.0000e+00 -1.0000e+00
       21 -1    0    0  502  503 -0.0000000000e+00 -0.0000000000e+00 -2.6789553504e+02 2.6789553504e+02 0.0000000000e+00 0.0000e+00 -1.0000e+00
        6  1    1    2  501    0 -1.1627732115e+02 -9.1229475201e+01 +1.6615221624e+02 2.8174242052e+02 1.7300000000e+02 0.0000e+00 -1.0000e+00
       -6  1    1    2    0  503 +1.1627732115e+02 +9.1229475201e+01 -1.4849628501e+02 2.7170458078e+02 1.7300000000e+02 0.0000e+00 -1.0000e+00
<mgrwt>
<rscale>  2 0.22753512E+03</rscale>
<asrwt>0</asrwt>
<pdfrwt beam="1">  1       21 0.43930995E-01 0.22753512E+03</pdfrwt>
<pdfrwt beam="2">  1       21 0.41214698E-01 0.22753512E+03</pdfrwt>
<totfact> 0.27701830E+04</totfact>
</mgrwt>
<rwgt>
<wgt id='1'> +6.5631860e+02 </wgt>
<wgt id='2'> +5.4016742e+02 </wgt>
<wgt id='3'> +5.0481800e+02 </wgt>
<wgt id='4'> +6.5631860e+02 </wgt>
<wgt id='5'> +4.7025276e+02 </wgt>
<wgt id='6'> +6.1386807e+02 </wgt>
<wgt id='7'> +4.9969776e+02 </wgt>
<wgt id='8'> +4.6702066e+02 </wgt>
<wgt id='9'> +6.1386807e+02 </wgt>
<wgt id='10'> +4.3516802e+02 </wgt>
<wgt id='11'> +5.6790581e+02 </wgt>
<wgt id='12'> +4.6267347e+02 </wgt>
<wgt id='13'> +4.3258190e+02 </wgt>
<wgt id='14'> +5.6790580e+02 </wgt>
<wgt id='15'> +4.0325665e+02 </wgt>
<wgt id='16'> +5.3972744e+02 </wgt>
<wgt id='17'> +4.5455327e+02 </wgt>
<wgt id='18'> +4.2650253e+02 </wgt>
<wgt id='19'> +5.3972744e+02 </wgt>
<wgt id='20'> +3.9885052e+02 </wgt>
<wgt id='21'> +4.2049787e+02 </wgt>
<wgt id='22'> +3.9456892e+02 </wgt>
<wgt id='23'> +5.0481800e+02 </wgt>
<wgt id='24'> +3.6909297e+02 </wgt>
<wgt id='25'> +4.6702066e+02 </wgt>
<wgt id='26'> +3.8934177e+02 </wgt>
<wgt id='27'> +3.6547285e+02 </wgt>
<wgt id='28'> +4.6702066e+02 </wgt>
<wgt id='29'> +3.4202696e+02 </wgt>
<wgt id='30'> +4.5599626e+02 </wgt>
<wgt id='31'> +3.8783068e+02 </wgt>
<wgt id='32'> +3.6508656e+02 </wgt>
<wgt id='33'> +4.5599626e+02 </wgt>
<wgt id='34'> +3.4255614e+02 </wgt>
<wgt id='35'> +4.2650253e+02 </wgt>
<wgt id='36'> +3.5877418e+02 </wgt>
<wgt id='37'> +3.3775136e+02 </wgt>
<wgt id='38'> +4.2650253e+02 </wgt>
<wgt id='39'> +3.1699862e+02 </wgt>
<wgt id='40'> +3.9456892e+02 </wgt>
<wgt id='41'> +3.3219140e+02 </wgt>
<wgt id='42'> +3.1284510e+02 </wgt>
<wgt id='43'> +3.9456892e+02 </wgt>
<wgt id='44'> +2.9375275e+02 </wgt>
<wgt id='45'> +5.0481800e+02 </wgt>
<wgt id='46'> +5.0978313e+02 </wgt>
<wgt id='47'> +5.2641036e+02 </wgt>
<wgt id='48'> +5.0973469e+02 </wgt>
<wgt id='49'> +5.0364533e+02 </wgt>
<wgt id='50'> +6.0488576e+02 </wgt>
<wgt id='51'> +4.9516913e+02 </wgt>
<wgt id='52'> +5.0295792e+02 </wgt>
<wgt id='53'> +5.0736843e+02 </wgt>
<wgt id='54'> +5.0767049e+02 </wgt>
<wgt id='55'> +4.4830283e+02 </wgt>
<wgt id='56'> +4.6402118e+02 </wgt>
<wgt id='57'> +4.9018736e+02 </wgt>
<wgt id='58'> +5.0356645e+02 </wgt>
<wgt id='59'> +5.0163859e+02 </wgt>
<wgt id='60'> +4.8811423e+02 </wgt>
<wgt id='61'> +4.8318881e+02 </wgt>
<wgt id='62'> +4.9936649e+02 </wgt>
<wgt id='63'> +5.0528949e+02 </wgt>
<wgt id='64'> +4.9546791e+02 </wgt>
<wgt id='65'> +5.9742792e+02 </wgt>
<wgt id='66'> +4.9382809e+02 </wgt>
<wgt id='67'> +5.0941607e+02 </wgt>
<wgt id='68'> +5.4692247e+02 </wgt>
<wgt id='69'> +4.9889192e+02 </wgt>
<wgt id='70'> +4.9524230e+02 </wgt>
<wgt id='71'> +5.1419920e+02 </wgt>
<wgt id='72'> +4.8051021e+02 </wgt>
<wgt id='73'> +4.9573271e+02 </wgt>
<wgt id='74'> +5.2540784e+02 </wgt>
<wgt id='75'> +5.1781376e+02 </wgt>
<wgt id='76'> +4.8797312e+02 </wgt>
<wgt id='77'> +4.8896833e+02 </wgt>
<wgt id='78'> +5.0006647e+02 </wgt>
<wgt id='79'> +4.8672839e+02 </wgt>
<wgt id='80'> +4.9866645e+02 </wgt>
<wgt id='81'> +4.9325156e+02 </wgt>
<wgt id='82'> +5.1636667e+02 </wgt>
<wgt id='83'> +5.1866012e+02 </wgt>
<wgt id='84'> +5.5875745e+02 </wgt>
<wgt id='85'> +5.3244654e+02 </wgt>
<wgt id='86'> +5.0484649e+02 </wgt>
<wgt id='87'> +5.0661796e+02 </wgt>
<wgt id='88'> +5.1579889e+02 </wgt>
<wgt id='89'> +5.1951219e+02 </wgt>
<wgt id='90'> +5.1203785e+02 </wgt>
<wgt id='91'> +5.3671931e+02 </wgt>
<wgt id='92'> +4.5394816e+02 </wgt>
<wgt id='93'> +4.9890668e+02 </wgt>
<wgt id='94'> +4.9847990e+02 </wgt>
<wgt id='95'> +4.8071727e+02 </wgt>
<wgt id='96'> +5.5375934e+02 </wgt>
<wgt id='97'> +5.0996254e+02 </wgt>
<wgt id='98'> +4.8200993e+02 </wgt>
<wgt id='99'> +4.8807294e+02 </wgt>
<wgt id='100'> +4.9269676e+02 </wgt>
<wgt id='101'> +5.4040985e+02 </wgt>
<wgt id='102'> +4.9829617e+02 </wgt>
<wgt id='103'> +5.5337810e+02 </wgt>
<wgt id='104'> +5.0693764e+02 </wgt>
<wgt id='105'> +5.2103985e+02 </wgt>
<wgt id='106'> +4.5512087e+02 </wgt>
<wgt id='107'> +4.9013280e+02 </wgt>
<wgt id='108'> +4.4358115e+02 </wgt>
<wgt id='109'> +4.6841902e+02 </wgt>
<wgt id='110'> +5.0393845e+02 </wgt>
<wgt id='111'> +4.8819927e+02 </wgt>
<wgt id='112'> +4.7685284e+02 </wgt>
<wgt id='113'> +4.5858930e+02 </wgt>
<wgt id='114'> +4.9495715e+02 </wgt>
<wgt id='115'> +4.9783986e+02 </wgt>
<wgt id='116'> +5.1191534e+02 </wgt>
<wgt id='117'> +5.0898185e+02 </wgt>
<wgt id='118'> +5.2444244e+02 </wgt>
<wgt id='119'> +4.8192960e+02 </wgt>
<wgt id='120'> +4.9793496e+02 </wgt>
<wgt id='121'> +4.8722836e+02 </wgt>
<wgt id='122'> +4.9695256e+02 </wgt>
<wgt id='123'> +5.1374086e+02 </wgt>
<wgt id='124'> +5.4782422e+02 </wgt>
<wgt id='125'> +5.4811811e+02 </wgt>
<wgt id='126'> +5.2812279e+02 </wgt>
<wgt id='127'> +5.2278231e+02 </wgt>
<wgt id='128'> +4.6425566e+02 </wgt>
<wgt id='129'> +5.7523321e+02 </wgt>
<wgt id='130'> +5.1119989e+02 </wgt>
<wgt id='131'> +5.4119258e+02 </wgt>
<wgt id='132'> +5.0332553e+02 </wgt>
<wgt id='133'> +5.0652477e+02 </wgt>
<wgt id='134'> +4.7494574e+02 </wgt>
<wgt id='135'> +5.1805489e+02 </wgt>
<wgt id='136'> +4.8637509e+02 </wgt>
<wgt id='137'> +4.7734840e+02 </wgt>
<wgt id='138'> +4.6525996e+02 </wgt>
<wgt id='139'> +5.1737775e+02 </wgt>
<wgt id='140'> +5.3430416e+02 </wgt>
<wgt id='141'> +5.0578178e+02 </wgt>
<wgt id='142'> +5.0224885e+02 </wgt>
<wgt id='143'> +5.0256759e+02 </wgt>
<wgt id='144'> +5.0042439e+02 </wgt>
<wgt id='145'> +5.0621178e+02 </wgt>
</rwgt>
</event>
<event>
 4      1 +5.0481800e+02 2.07369000e+02 7.54677100e-03 1.14366700e-01
       21 -1    0    0  503  502 +0.0000000000e+00 +0.0000000000e+00 +4.2508497454e+02 4.2508497454e+02 0.0000000000e+00 0.0000e+00 -1.0000e+00
       21 -1    0    0  501  503 -0.0000000000e+00 -0.0000000000e+00 -1.6186903587e+02 1.6186903587e+02 0.0000000000e+00 0.0000e+00 1.0000e+00
        6  1    1    2  501    0 +5.4239764697e+01 +1.0065266852e+02 -4.8120220346e+01 2.1287899699e+02 1.7300000000e+02 0.0000e+00 1.0000e+00
       -6  1    1    2    0  502 -5.4239764697e+01 -1.0065266852e+02 +3.1133615902e+02 3.7407501342e+02 1.7300000000e+02 0.0000e+00 -1.0000e+00
<mgrwt>
<rscale>  2 0.20736902E+03</rscale>
<asrwt>0</asrwt>
<pdfrwt beam="1">  1       21 0.65397688E-01 0.20736902E+03</pdfrwt>
<pdfrwt beam="2">  1       21 0.24902929E-01 0.20736902E+03</pdfrwt>
<totfact> 0.32558983E+04</totfact>
</mgrwt>
<rwgt>
<wgt id='1'> +6.5639575e+02 </wgt>
<wgt id='2'> +5.5246273e+02 </wgt>
<wgt id='3'> +5.0481800e+02 </wgt>
<wgt id='4'> +6.5639575e+02 </wgt>
<wgt id='5'> +4.6355699e+02 </wgt>
<wgt id='6'> +6.1705865e+02 </wgt>
<wgt id='7'> +5.1300096e+02 </wgt>
<wgt id='8'> +4.6779718e+02 </wgt>
<wgt id='9'> +6.1705864e+02 </wgt>
<wgt id='10'> +4.2971734e+02 </wgt>
<wgt id='11'> +5.7180666e+02 </wgt>
<wgt id='12'> +4.7567705e+02 </wgt>
<wgt id='13'> +4.3392722e+02 </wgt>
<wgt id='14'> +5.7180666e+02 </wgt>
<wgt id='15'> +3.9877877e+02 </wgt>
<wgt id='16'> +5.3699983e+02 </wgt>
<wgt id='17'> +4.6249515e+02 </wgt>
<wgt id='18'> +4.2574899e+02 </wgt>
<wgt id='19'> +5.3699983e+02 </wgt>
<wgt id='20'> +3.9276061e+02 </wgt>
<wgt id='21'> +4.2945966e+02 </wgt>
<wgt id='22'> +3.9452670e+02 </wgt>
<wgt id='23'> +5.0481800e+02 </wgt>
<wgt id='24'> +3.6408909e+02 </wgt>
<wgt id='25'> +4.6779718e+02 </wgt>
<wgt id='26'> +3.9821388e+02 </wgt>
<wgt id='27'> +3.6596174e+02 </wgt>
<wgt id='28'> +4.6779718e+02 </wgt>
<wgt id='29'> +3.3787559e+02 </wgt>
<wgt id='30'> +4.5289023e+02 </wgt>
<wgt id='31'> +3.9349069e+02 </wgt>
<wgt id='32'> +3.6384748e+02 </wgt>
<wgt id='33'> +4.5289023e+02 </wgt>
<wgt id='34'> +3.3702689e+02 </wgt>
<wgt id='35'> +4.2574899e+02 </wgt>
<wgt id='36'> +3.6538411e+02 </wgt>
<wgt id='37'> +3.3716474e+02 </wgt>
<wgt id='38'> +4.2574899e+02 </wgt>
<wgt id='39'> +3.1242393e+02 </wgt>
<wgt id='40'> +3.9452670e+02 </wgt>
<wgt id='41'> +3.3880021e+02 </wgt>
<wgt id='42'> +3.1275297e+02 </wgt>
<wgt id='43'> +3.9452670e+02 </wgt>
<wgt id='44'> +2.8993020e+02 </wgt>
<wgt id='45'> +5.0481800e+02 </wgt>
<wgt id='46'> +5.1041309e+02 </wgt>
<wgt id='47'> +5.2461569e+02 </wgt>
<wgt id='48'> +5.0914006e+02 </wgt>
<wgt id='49'> +5.0220318e+02 </wgt>
<wgt id='50'> +6.0222494e+02 </wgt>
<wgt id='51'> +4.9458003e+02 </wgt>
<wgt id='52'> +5.0329979e+02 </wgt>
<wgt id='53'> +5.0574861e+02 </wgt>
<wgt id='54'> +5.0867878e+02 </wgt>
<wgt id='55'> +4.5496021e+02 </wgt>
<wgt id='56'> +4.6365642e+02 </wgt>
<wgt id='57'> +4.9407588e+02 </wgt>
<wgt id='58'> +5.0230455e+02 </wgt>
<wgt id='59'> +5.0603416e+02 </wgt>
<wgt id='60'> +4.9105236e+02 </wgt>
<wgt id='61'> +4.7418862e+02 </wgt>
<wgt id='62'> +4.9834373e+02 </wgt>
<wgt id='63'> +5.0543115e+02 </wgt>
<wgt id='64'> +4.9572354e+02 </wgt>
<wgt id='65'> +5.8966319e+02 </wgt>
<wgt id='66'> +4.9400539e+02 </wgt>
<wgt id='67'> +5.0904941e+02 </wgt>
<wgt id='68'> +5.4837018e+02 </wgt>
<wgt id='69'> +4.9896145e+02 </wgt>
<wgt id='70'> +4.9588485e+02 </wgt>
<wgt id='71'> +5.1352473e+02 </wgt>
<wgt id='72'> +4.8333220e+02 </wgt>
<wgt id='73'> +4.9468031e+02 </wgt>
<wgt id='74'> +5.2644422e+02 </wgt>
<wgt id='75'> +5.1718268e+02 </wgt>
<wgt id='76'> +4.9062170e+02 </wgt>
<wgt id='77'> +4.9000776e+02 </wgt>
<wgt id='78'> +4.9694116e+02 </wgt>
<wgt id='79'> +4.8890813e+02 </wgt>
<wgt id='80'> +4.9714355e+02 </wgt>
<wgt id='81'> +4.9390708e+02 </wgt>
<wgt id='82'> +5.1238015e+02 </wgt>
<wgt id='83'> +5.1650174e+02 </wgt>
<wgt id='84'> +5.5466104e+02 </wgt>
<wgt id='85'> +5.2828748e+02 </wgt>
<wgt id='86'> +5.0480663e+02 </wgt>
<wgt id='87'> +5.0679751e+02 </wgt>
<wgt id='88'> +5.1343810e+02 </wgt>
<wgt id='89'> +5.1762499e+02 </wgt>
<wgt id='90'> +5.1276053e+02 </wgt>
<wgt id='91'> +5.3260473e+02 </wgt>
<wgt id='92'> +4.5712232e+02 </wgt>
<wgt id='93'> +4.9923034e+02 </wgt>
<wgt id='94'> +4.9748628e+02 </wgt>
<wgt id='95'> +4.8519655e+02 </wgt>
<wgt id='96'> +5.4962559e+02 </wgt>
<wgt id='97'> +5.0809498e+02 </wgt>
<wgt id='98'> +4.8443909e+02 </wgt>
<wgt id='99'> +4.8637184e+02 </wgt>
<wgt id='100'> +4.8912668e+02 </wgt>
<wgt id='101'> +5.4274837e+02 </wgt>
<wgt id='102'> +5.0161484e+02 </wgt>
<wgt id='103'> +5.5076726e+02 </wgt>
<wgt id='104'> +5.0691857e+02 </wgt>
<wgt id='105'> +5.2175107e+02 </wgt>
<wgt id='106'> +4.5762042e+02 </wgt>
<wgt id='107'> +4.8929242e+02 </wgt>
<wgt id='108'> +4.4497558e+02 </wgt>
<wgt id='109'> +4.7065786e+02 </wgt>
<wgt id='110'> +5.0347393e+02 </wgt>
<wgt id='111'> +4.8938308e+02 </wgt>
<wgt id='112'> +4.7729815e+02 </wgt>
<wgt id='113'> +4.6118947e+02 </wgt>
<wgt id='114'> +4.9591102e+02 </wgt>
<wgt id='115'> +4.9440608e+02 </wgt>
<wgt id='116'> +5.1299896e+02 </wgt>
<wgt id='117'> +5.0707866e+02 </wgt>
<wgt id='118'> +5.2459462e+02 </wgt>
<wgt id='119'> +4.8467384e+02 </wgt>
<wgt id='120'> +4.9679987e+02 </wgt>
<wgt id='121'> +4.8954648e+02 </wgt>
<wgt id='122'> +4.9785427e+02 </wgt>
<wgt id='123'> +5.1210492e+02 </wgt>
<wgt id='124'> +5.4902125e+02 </wgt>
<wgt id='125'> +5.5031183e+02 </wgt>
<wgt id='126'> +5.2581654e+02 </wgt>
<wgt id='127'> +5.2138239e+02 </wgt>
<wgt id='128'> +4.6327248e+02 </wgt>
<wgt id='129'> +5.7293696e+02 </wgt>
<wgt id='130'> +5.0788254e+02 </wgt>
<wgt id='131'> +5.3783266e+02 </wgt>
<wgt id='132'> +5.0893700e+02 </wgt>
<wgt id='133'> +5.0841558e+02 </wgt>
<wgt id='134'> +4.7841970e+02 </wgt>
<wgt id='135'> +5.1672612e+02 </wgt>
<wgt id='136'> +4.9373298e+02 </wgt>
<wgt id='137'> +4.7829195e+02 </wgt>
<wgt id='138'> +4.6595565e+02 </wgt>
<wgt id='139'> +5.1762858e+02 </wgt>
<wgt id='140'> +5.3140756e+02 </wgt>
<wgt id='141'> +5.0691862e+02 </wgt>
<wgt id='142'> +4.9661624e+02 </wgt>
<wgt id='143'> +5.0514798e+02 </wgt>
<wgt id='144'> +4.9981483e+02 </wgt>
<wgt id='145'> +5.0545184e+02 </wgt>
</rwgt>
</event>
<event>
 4      1 +5.0481800e+02 2.09481600e+02 7.54677100e-03 1.14197700e-01
       21 -1    0    0  501  502 +0.0000000000e+00 +0.0000000000e+00 +4.8033751707e+01 4.8033751707e+01 0.0000000000e+00 0.0000e+00 -1.0000e+00
       21 -1    0    0  502  503 -0.0000000000e+00 -0.0000000000e+00 -1.7944825468e+03 1.7944825468e+03 0.0000000000e+00 0.0000e+00 -1.0000e+00
        6  1    1    2  501    0 +1.1689963453e+02 -1.6970935744e+01 -2.2775395097e+02 3.0944207761e+02 1.7300000000e+02 0.0000e+00 -1.0000e+00
       -6  1    1    2    0  503 -1.1689963453e+02 +1.6970935744e+01 -1.5186948441e+03 1.5330742209e+03 1.7300000000e+02 0.0000e+00 -1.0000e+00
<mgrwt>
<rscale>  2 0.20948159E+03</rscale>
<asrwt>0</asrwt>
<pdfrwt beam="1">  1       21 0.73898084E-02 0.20948159E+03</pdfrwt>
<pdfrwt beam="2">  1       21 0.27607422E+00 0.20948159E+03</pdfrwt>
<totfact> 0.63454799E+03</totfact>
</mgrwt>
<rwgt>
<wgt id='1'> +7.0702738e+02 </wgt>
<wgt id='2'> +6.3315006e+02 </wgt>
<wgt id='3'> +5.0481800e+02 </wgt>
<wgt id='4'> +7.0702738e+02 </wgt>
<wgt id='5'> +4.3219602e+02 </wgt>
<wgt id='6'> +6.1670575e+02 </wgt>
<wgt id='7'> +5.5016069e+02 </wgt>
<wgt id='8'> +4.3747484e+02 </wgt>
<wgt id='9'> +6.1670575e+02 </wgt>
<wgt id='10'> +3.7595479e+02 </wgt>
<wgt id='11'> +5.3443667e+02 </wgt>
<wgt id='12'> +4.7797007e+02 </wgt>
<wgt id='13'> +3.8199291e+02 </wgt>
<wgt id='14'> +5.3443666e+02 </wgt>
<wgt id='15'> +3.2944529e+02 </wgt>
<wgt id='16'> +5.7875275e+02 </wgt>
<wgt id='17'> +5.2442454e+02 </wgt>
<wgt id='18'> +4.2583550e+02 </wgt>
<wgt id='19'> +5.7875275e+02 </wgt>
<wgt id='20'> +3.6699925e+02 </wgt>
<wgt id='21'> +4.5568623e+02 </wgt>
<wgt id='22'> +3.6902868e+02 </wgt>
<wgt id='23'> +5.0481800e+02 </wgt>
<wgt id='24'> +3.1924201e+02 </wgt>
<wgt id='25'> +4.3747484e+02 </wgt>
<wgt id='26'> +3.9589230e+02 </wgt>
<wgt id='27'> +3.2222730e+02 </wgt>
<wgt id='28'> +4.3747484e+02 </wgt>
<wgt id='29'> +2.7974846e+02 </wgt>
<wgt id='30'> +4.8820262e+02 </wgt>
<wgt id='31'> +4.4430003e+02 </wgt>
<wgt id='32'> +3.6398730e+02 </wgt>
<wgt id='33'> +4.8820261e+02 </wgt>
<wgt id='34'> +3.1551334e+02 </wgt>
<wgt id='35'> +4.2583550e+02 </wgt>
<wgt id='36'> +3.8606394e+02 </wgt>
<wgt id='37'> +3.1543108e+02 </wgt>
<wgt id='38'> +4.2583550e+02 </wgt>
<wgt id='39'> +2.7445591e+02 </wgt>
<wgt id='40'> +3.6902868e+02 </wgt>
<wgt id='41'> +3.3540566e+02 </wgt>
<wgt id='42'> +2.7542712e+02 </wgt>
<wgt id='43'> +3.6902868e+02 </wgt>
<wgt id='44'> +2.4050287e+02 </wgt>
<wgt id='45'> +5.0481800e+02 </wgt>
<wgt id='46'> +5.1247361e+02 </wgt>
<wgt id='47'> +5.7030054e+02 </wgt>
<wgt id='48'> +5.0494191e+02 </wgt>
<wgt id='49'> +4.4454673e+02 </wgt>
<wgt id='50'> +5.9967540e+02 </wgt>
<wgt id='51'> +4.7211035e+02 </wgt>
<wgt id='52'> +4.2489823e+02 </wgt>
<wgt id='53'> +5.4340913e+02 </wgt>
<wgt id='54'> +5.4057791e+02 </wgt>
<wgt id='55'> +6.1805243e+02 </wgt>
<wgt id='56'> +4.9224072e+02 </wgt>
<wgt id='57'> +5.4645881e+02 </wgt>
<wgt id='58'> +4.2939390e+02 </wgt>
<wgt id='59'> +5.4616977e+02 </wgt>
<wgt id='60'> +4.8494260e+02 </wgt>
<wgt id='61'> +3.9611139e+02 </wgt>
<wgt id='62'> +4.3728087e+02 </wgt>
<wgt id='63'> +5.4033383e+02 </wgt>
<wgt id='64'> +5.0748918e+02 </wgt>
<wgt id='65'> +4.0436414e+02 </wgt>
<wgt id='66'> +5.2337113e+02 </wgt>
<wgt id='67'> +5.0384647e+02 </wgt>
<wgt id='68'> +7.0526145e+02 </wgt>
<wgt id='69'> +5.9593896e+02 </wgt>
<wgt id='70'> +6.2684158e+02 </wgt>
<wgt id='71'> +4.3671376e+02 </wgt>
<wgt id='72'> +4.2229697e+02 </wgt>
<wgt id='73'> +4.4027373e+02 </wgt>
<wgt id='74'> +6.4481529e+02 </wgt>
<wgt id='75'> +6.1606564e+02 </wgt>
<wgt id='76'> +5.1884470e+02 </wgt>
<wgt id='77'> +4.4305469e+02 </wgt>
<wgt id='78'> +4.0940143e+02 </wgt>
<wgt id='79'> +5.7493563e+02 </wgt>
<wgt id='80'> +4.0312629e+02 </wgt>
<wgt id='81'> +5.5432738e+02 </wgt>
<wgt id='82'> +5.0365843e+02 </wgt>
<wgt id='83'> +5.0356667e+02 </wgt>
<wgt id='84'> +4.5755897e+02 </wgt>
<wgt id='85'> +4.2243175e+02 </wgt>
<wgt id='86'> +5.5931138e+02 </wgt>
<wgt id='87'> +4.7890145e+02 </wgt>
<wgt id='88'> +5.1907864e+02 </wgt>
<wgt id='89'> +3.4313455e+02 </wgt>
<wgt id='90'> +4.1970232e+02 </wgt>
<wgt id='91'> +3.8744439e+02 </wgt>
<wgt id='92'> +4.7593107e+02 </wgt>
<wgt id='93'> +5.2417403e+02 </wgt>
<wgt id='94'> +4.4519747e+02 </wgt>
<wgt id='95'> +5.2642188e+02 </wgt>
<wgt id='96'> +5.2212121e+02 </wgt>
<wgt id='97'> +4.2800096e+02 </wgt>
<wgt id='98'> +6.0227933e+02 </wgt>
<wgt id='99'> +3.8308672e+02 </wgt>
<wgt id='100'> +3.3080986e+02 </wgt>
<wgt id='101'> +6.0676892e+02 </wgt>
<wgt id='102'> +5.9217195e+02 </wgt>
<wgt id='103'> +4.3508647e+02 </wgt>
<wgt id='104'> +5.6869065e+02 </wgt>
<wgt id='105'> +5.1494448e+02 </wgt>
<wgt id='106'> +5.1304355e+02 </wgt>
<wgt id='107'> +5.1733493e+02 </wgt>
<wgt id='108'> +4.7245194e+02 </wgt>
<wgt id='109'> +5.0480349e+02 </wgt>
<wgt id='110'> +4.1806216e+02 </wgt>
<wgt id='111'> +4.7700983e+02 </wgt>
<wgt id='112'> +5.3100222e+02 </wgt>
<wgt id='113'> +6.0018467e+02 </wgt>
<wgt id='114'> +5.0679585e+02 </wgt>
<wgt id='115'> +4.7708542e+02 </wgt>
<wgt id='116'> +5.7762667e+02 </wgt>
<wgt id='117'> +5.1145961e+02 </wgt>
<wgt id='118'> +5.0256441e+02 </wgt>
<wgt id='119'> +5.6674705e+02 </wgt>
<wgt id='120'> +4.9960157e+02 </wgt>
<wgt id='121'> +4.6645311e+02 </wgt>
<wgt id='122'> +4.7926575e+02 </wgt>
<wgt id='123'> +4.5317584e+02 </wgt>
<wgt id='124'> +5.6703434e+02 </wgt>
<wgt id='125'> +7.1171875e+02 </wgt>
<wgt id='126'> +4.7907493e+02 </wgt>
<wgt id='127'> +4.5574305e+02 </wgt>
<wgt id='128'> +5.0647083e+02 </wgt>
<wgt id='129'> +4.8109498e+02 </wgt>
<wgt id='130'> +5.1281646e+02 </wgt>
<wgt id='131'> +4.2984447e+02 </wgt>
<wgt id='132'> +5.3911765e+02 </wgt>
<wgt id='133'> +5.6451710e+02 </wgt>
<wgt id='134'> +5.5948726e+02 </wgt>
<wgt id='135'> +4.6894725e+02 </wgt>
<wgt id='136'> +6.2054454e+02 </wgt>
<wgt id='137'> +5.9177196e+02 </wgt>
<wgt id='138'> +5.5237583e+02 </wgt>
<wgt id='139'> +5.2444928e+02 </wgt>
<wgt id='140'> +4.8585896e+02 </wgt>
<wgt id='141'> +6.4957590e+02 </wgt>
<wgt id='142'> +2.5254907e+02 </wgt>
<wgt id='143'> +5.0938038e+02 </wgt>
<wgt id='144'> +4.3300534e+02 </wgt>
<wgt id='145'> +4.5189093e+02 </wgt>
</rwgt>
</event>
<event>
 4      1 +5.0481800e+02 1.81441400e+02 7.54677100e-03 1.16641500e-01
       21 -1    0    0  501  502 +0.0000000000e+00 +0.0000000000e+00 +6.0694954207e+02 6.0694954207e+02 0.0000000000e+00 0.0000e+00 1.0000e+00
       21 -1    0    0  502  503 -0.0000000000e+00 -0.0000000000e+00 -7.0841157396e+01 7.0841157396e+01 0.0000000000e+00 0.0000e+00 -1.0000e+00
        6  1    1    2  501    0 -3.7808770651e+01 -3.9528193769e+01 +4.3210982595e+02 4.6865753266e+02 1.7300000000e+02 0.0000e+00 1.0000e+00
       -6  1    1    2    0  503 +3.7808770651e+01 +3.9528193769e+01 +1.0399855873e+02 2.0913316681e+02 1.7300000000e+02 0.0000e+00 -1.0000e+00
<mgrwt>
<rscale>  2 0.18144140E+03</rscale>
<asrwt>0</asrwt>
<pdfrwt beam="1">  1       21 0.93376849E-01 0.18144140E+03</pdfrwt>
<pdfrwt beam="2">  1       21 0.10898640E-01 0.18144140E+03</pdfrwt>
<totfact> 0.67533873E+04</totfact>
</mgrwt>
<rwgt>
<wgt id='1'> +6.5154893e+02 </wgt>
<wgt id='2'> +6.8991192e+02 </wgt>
<wgt id='3'> +5.0481800e+02 </wgt>
<wgt id='4'> +6.5154893e+02 </wgt>
<wgt id='5'> +4.8144988e+02 </wgt>
<wgt id='6'> +6.2118089e+02 </wgt>
<wgt id='7'> +6.5967555e+02 </wgt>
<wgt id='8'> +4.7232876e+02 </wgt>
<wgt id='9'> +6.2118089e+02 </wgt>
<wgt id='10'> +4.5008071e+02 </wgt>
<wgt id='11'> +5.8120272e+02 </wgt>
<wgt id='12'> +6.1880292e+02 </wgt>
<wgt id='13'> +4.4147650e+02 </wgt>
<wgt id='14'> +5.8120272e+02 </wgt>
<wgt id='15'> +4.2068859e+02 </wgt>
<wgt id='16'> +5.2949734e+02 </wgt>
<wgt id='17'> +5.5714072e+02 </wgt>
<wgt id='18'> +4.2425671e+02 </wgt>
<wgt id='19'> +5.2949734e+02 </wgt>
<wgt id='20'> +4.0604052e+02 </wgt>
<wgt id='21'> +5.3272324e+02 </wgt>
<wgt id='22'> +3.9695225e+02 </wgt>
<wgt id='23'> +5.0481800e+02 </wgt>
<wgt id='24'> +3.7958469e+02 </wgt>
<wgt id='25'> +4.7232876e+02 </wgt>
<wgt id='26'> +4.9971640e+02 </wgt>
<wgt id='27'> +3.7102355e+02 </wgt>
<wgt id='28'> +4.7232876e+02 </wgt>
<wgt id='29'> +3.5479625e+02 </wgt>
<wgt id='30'> +4.4499760e+02 </wgt>
<wgt id='31'> +4.6561655e+02 </wgt>
<wgt id='32'> +3.6169645e+02 </wgt>
<wgt id='33'> +4.4499760e+02 </wgt>
<wgt id='34'> +3.4700416e+02 </wgt>
<wgt id='35'> +4.2425671e+02 </wgt>
<wgt id='36'> +4.4521025e+02 </wgt>
<wgt id='37'> +3.3841827e+02 </wgt>
<wgt id='38'> +4.2425671e+02 </wgt>
<wgt id='39'> +3.2439488e+02 </wgt>
<wgt id='40'> +3.9695225e+02 </wgt>
<wgt id='41'> +4.1762560e+02 </wgt>
<wgt id='42'> +3.1631297e+02 </wgt>
<wgt id='43'> +3.9695225e+02 </wgt>
<wgt id='44'> +3.0321056e+02 </wgt>
<wgt id='45'> +5.0481800e+02 </wgt>
<wgt id='46'> +5.1269621e+02 </wgt>
<wgt id='47'> +5.1886652e+02 </wgt>
<wgt id='48'> +5.0695696e+02 </wgt>
<wgt id='49'> +4.9782947e+02 </wgt>
<wgt id='50'> +5.9176905e+02 </wgt>
<wgt id='51'> +4.9279679e+02 </wgt>
<wgt id='52'> +5.0368208e+02 </wgt>
<wgt id='53'> +5.0053215e+02 </wgt>
<wgt id='54'> +5.1213101e+02 </wgt>
<wgt id='55'> +4.7679732e+02 </wgt>
<wgt id='56'> +4.6499346e+02 </wgt>
<wgt id='57'> +5.0532898e+02 </wgt>
<wgt id='58'> +4.9801732e+02 </wgt>
<wgt id='59'> +5.1923754e+02 </wgt>
<wgt id='60'> +5.0147519e+02 </wgt>
<wgt id='61'> +4.5315762e+02 </wgt>
<wgt id='62'> +4.9522039e+02 </wgt>
<wgt id='63'> +5.0711296e+02 </wgt>
<wgt id='64'> +4.9727309e+02 </wgt>
<wgt id='65'> +5.6080510e+02 </wgt>
<wgt id='66'> +4.9561687e+02 </wgt>
<wgt id='67'> +5.0790939e+02 </wgt>
<wgt id='68'> +5.5220493e+02 </wgt>
<wgt id='69'> +5.0022526e+02 </wgt>
<wgt id='70'> +4.9923554e+02 </wgt>
<wgt id='71'> +5.0983860e+02 </wgt>
<wgt id='72'> +4.8974761e+02 </wgt>
<wgt id='73'> +4.9123370e+02 </wgt>
<wgt id='74'> +5.3028556e+02 </wgt>
<wgt id='75'> +5.1563184e+02 </wgt>
<wgt id='76'> +4.9830369e+02 </wgt>
<wgt id='77'> +4.9351422e+02 </wgt>
<wgt id='78'> +4.8681201e+02 </wgt>
<wgt id='79'> +4.9726376e+02 </wgt>
<wgt id='80'> +4.9259182e+02 </wgt>
<wgt id='81'> +4.9667900e+02 </wgt>
<wgt id='82'> +5.0090858e+02 </wgt>
<wgt id='83'> +5.0952591e+02 </wgt>
<wgt id='84'> +5.4016849e+02 </wgt>
<wgt id='85'> +5.1505419e+02 </wgt>
<wgt id='86'> +5.0567842e+02 </wgt>
<wgt id='87'> +5.0727547e+02 </wgt>
<wgt id='88'> +5.0639246e+02 </wgt>
<wgt id='89'> +5.1048061e+02 </wgt>
<wgt id='90'> +5.1322945e+02 </wgt>
<wgt id='91'> +5.1840410e+02 </wgt>
<wgt id='92'> +4.6623897e+02 </wgt>
<wgt id='93'> +5.0112623e+02 </wgt>
<wgt id='94'> +4.9355159e+02 </wgt>
<wgt id='95'> +4.9816777e+02 </wgt>
<wgt id='96'> +5.3759342e+02 </wgt>
<wgt id='97'> +5.0115777e+02 </wgt>
<wgt id='98'> +4.9279298e+02 </wgt>
<wgt id='99'> +4.8101605e+02 </wgt>
<wgt id='100'> +4.7709425e+02 </wgt>
<wgt id='101'> +5.4991482e+02 </wgt>
<wgt id='102'> +5.1308964e+02 </wgt>
<wgt id='103'> +5.4097578e+02 </wgt>
<wgt id='104'> +5.0755015e+02 </wgt>
<wgt id='105'> +5.2234617e+02 </wgt>
<wgt id='106'> +4.6542056e+02 </wgt>
<wgt id='107'> +4.8680832e+02 </wgt>
<wgt id='108'> +4.5077616e+02 </wgt>
<wgt id='109'> +4.7819363e+02 </wgt>
<wgt id='110'> +5.0163175e+02 </wgt>
<wgt id='111'> +4.9222826e+02 </wgt>
<wgt id='112'> +4.8128722e+02 </wgt>
<wgt id='113'> +4.7080456e+02 </wgt>
<wgt id='114'> +4.9831909e+02 </wgt>
<wgt id='115'> +4.8319684e+02 </wgt>
<wgt id='116'> +5.1730405e+02 </wgt>
<wgt id='117'> +5.0092661e+02 </wgt>
<wgt id='118'> +5.2496591e+02 </wgt>
<wgt id='119'> +4.9433156e+02 </wgt>
<wgt id='120'> +4.9430282e+02 </wgt>
<wgt id='121'> +4.9655751e+02 </wgt>
<wgt id='122'> +4.9956773e+02 </wgt>
<wgt id='123'> +5.0674216e+02 </wgt>
<wgt id='124'> +5.5189718e+02 </wgt>
<wgt id='125'> +5.5740885e+02 </wgt>
<wgt id='126'> +5.1869057e+02 </wgt>
<wgt id='127'> +5.1644314e+02 </wgt>
<wgt id='128'> +4.6204116e+02 </wgt>
<wgt id='129'> +5.6306895e+02 </wgt>
<wgt id='130'> +4.9976333e+02 </wgt>
<wgt id='131'> +5.2639814e+02 </wgt>
<wgt id='132'> +5.2509294e+02 </wgt>
<wgt id='133'> +5.1506366e+02 </wgt>
<wgt id='134'> +4.9003364e+02 </wgt>
<wgt id='135'> +5.1196943e+02 </wgt>
<wgt id='136'> +5.1640043e+02 </wgt>
<wgt id='137'> +4.8268874e+02 </wgt>
<wgt id='138'> +4.7070766e+02 </wgt>
<wgt id='139'> +5.1855734e+02 </wgt>
<wgt id='140'> +5.2162083e+02 </wgt>
<wgt id='141'> +5.1167268e+02 </wgt>
<wgt id='142'> +4.8119260e+02 </wgt>
<wgt id='143'> +5.1279434e+02 </wgt>
<wgt id='144'> +4.9721400e+02 </wgt>
<wgt id='145'> +5.0105460e+02 </wgt>
</rwgt>
</event>
<event>
 4      1 +5.0481800e+02 2.05363300e+02 7.54677100e-03 1.14529100e-01
       21 -1    0    0  503  502 +0.0000000000e+00 +0.0000000000e+00 +2.9658459961e+02 2.9658459961e+02 0.0000000000e+00 0.0000e+00 -1.0000e+00
       21 -1    0    0  501  503 -0.0000000000e+00 -0.0000000000e+00 -1.5379298216e+02 1.5379298216e+02 0.0000000000e+00 0.0000e+00 1.0000e+00
        6  1    1    2  501    0 -1.0777471890e+02 +2.5093451237e+01 +1.3322483878e+02 2.4479160320e+02 1.7300000000e+02 0.0000e+00 -1.0000e+00
       -6  1    1    2    0  502 +1.0777471890e+02 -2.5093451237e+01 +9.5667786609e+00 2.0558597857e+02 1.7300000000e+02 0.0000e+00 1.0000e+00
<mgrwt>
<rscale>  2 0.20536327E+03</rscale>
<asrwt>0</asrwt>
<pdfrwt beam="1">  1       21 0.45628400E-01 0.20536327E+03</pdfrwt>
<pdfrwt beam="2">  1       21 0.23660459E-01 0.20536327E+03</pdfrwt>
<totfact> 0.77041624E+04</totfact>
</mgrwt>
<rwgt>
<wgt id='1'> +6.4613667e+02 </wgt>
<wgt id='2'> +5.2783235e+02 </wgt>
<wgt id='3'> +5.0481800e+02 </wgt>
<wgt id='4'> +6.4613667e+02 </wgt>
<wgt id='5'> +4.9804671e+02 </wgt>
<wgt id='6'> +6.1739470e+02 </wgt>
<wgt id='7'> +4.9660592e+02 </wgt>
<wgt id='8'> +4.7450954e+02 </wgt>
<wgt id='9'> +6.1739471e+02 </wgt>
<wgt id='10'> +4.6813347e+02 </wgt>
<wgt id='11'> +5.8032732e+02 </wgt>
<wgt id='12'> +4.6661741e+02 </wgt>
<wgt id='13'> +4.4584197e+02 </wgt>
<wgt id='14'> +5.8032732e+02 </wgt>
<wgt id='15'> +4.3984947e+02 </wgt>
<wgt id='16'> +5.2831911e+02 </wgt>
<wgt id='17'> +4.4353470e+02 </wgt>
<wgt id='18'> +4.2566357e+02 </wgt>
<wgt id='19'> +5.2831911e+02 </wgt>
<wgt id='20'> +4.2028090e+02 </wgt>
<wgt id='21'> +4.1729530e+02 </wgt>
<wgt id='22'> +4.0010742e+02 </wgt>
<wgt id='23'> +5.0481800e+02 </wgt>
<wgt id='24'> +3.9503836e+02 </wgt>
<wgt id='25'> +4.7450954e+02 </wgt>
<wgt id='26'> +3.9209611e+02 </wgt>
<wgt id='27'> +3.7593487e+02 </wgt>
<wgt id='28'> +4.7450954e+02 </wgt>
<wgt id='29'> +3.7117068e+02 </wgt>
<wgt id='30'> +4.4547975e+02 </wgt>
<wgt id='31'> +3.7810023e+02 </wgt>
<wgt id='32'> +3.6371104e+02 </wgt>
<wgt id='33'> +4.4547976e+02 </wgt>
<wgt id='34'> +3.5936264e+02 </wgt>
<wgt id='35'> +4.2566357e+02 </wgt>
<wgt id='36'> +3.5573191e+02 </wgt>
<wgt id='37'> +3.4187442e+02 </wgt>
<wgt id='38'> +4.2566357e+02 </wgt>
<wgt id='39'> +3.3777892e+02 </wgt>
<wgt id='40'> +4.0010742e+02 </wgt>
<wgt id='41'> +3.3425035e+02 </wgt>
<wgt id='42'> +3.2122002e+02 </wgt>
<wgt id='43'> +4.0010742e+02 </wgt>
<wgt id='44'> +3.1737077e+02 </wgt>
<wgt id='45'> +5.0481800e+02 </wgt>
<wgt id='46'> +5.0412948e+02 </wgt>
<wgt id='47'> +5.2221197e+02 </wgt>
<wgt id='48'> +5.0581169e+02 </wgt>
<wgt id='49'> +5.0382465e+02 </wgt>
<wgt id='50'> +5.8626860e+02 </wgt>
<wgt id='51'> +4.9514923e+02 </wgt>
<wgt id='52'> +5.0172490e+02 </wgt>
<wgt id='53'> +5.1140386e+02 </wgt>
<wgt id='54'> +5.0769671e+02 </wgt>
<wgt id='55'> +4.5179728e+02 </wgt>
<wgt id='56'> +4.7086484e+02 </wgt>
<wgt id='57'> +4.9143461e+02 </wgt>
<wgt id='58'> +5.0885842e+02 </wgt>
<wgt id='59'> +4.9656731e+02 </wgt>
<wgt id='60'> +4.8355964e+02 </wgt>
<wgt id='61'> +4.9349663e+02 </wgt>
<wgt id='62'> +4.9811904e+02 </wgt>
<wgt id='63'> +5.0527578e+02 </wgt>
<wgt id='64'> +5.0090089e+02 </wgt>
<wgt id='65'> +5.9483508e+02 </wgt>
<wgt id='66'> +4.9282433e+02 </wgt>
<wgt id='67'> +5.0936124e+02 </wgt>
<wgt id='68'> +5.3949636e+02 </wgt>
<wgt id='69'> +4.9161388e+02 </wgt>
<wgt id='70'> +4.9668479e+02 </wgt>
<wgt id='71'> +5.1435611e+02 </wgt>
<wgt id='72'> +4.9217432e+02 </wgt>
<wgt id='73'> +4.9858053e+02 </wgt>
<wgt id='74'> +5.1883068e+02 </wgt>
<wgt id='75'> +5.1572253e+02 </wgt>
<wgt id='76'> +4.9041226e+02 </wgt>
<wgt id='77'> +4.8594863e+02 </wgt>
<wgt id='78'> +5.0605758e+02 </wgt>
<wgt id='79'> +4.8387673e+02 </wgt>
<wgt id='80'> +5.0088878e+02 </wgt>
<wgt id='81'> +4.9593514e+02 </wgt>
<wgt id='82'> +5.1883313e+02 </wgt>
<wgt id='83'> +5.1479742e+02 </wgt>
<wgt id='84'> +5.5368532e+02 </wgt>
<wgt id='85'> +5.3102518e+02 </wgt>
<wgt id='86'> +5.0107890e+02 </wgt>
<wgt id='87'> +5.0451056e+02 </wgt>
<wgt id='88'> +5.1330180e+02 </wgt>
<wgt id='89'> +5.1619943e+02 </wgt>
<wgt id='90'> +5.1008722e+02 </wgt>
<wgt id='91'> +5.3716755e+02 </wgt>
<wgt id='92'> +4.6622679e+02 </wgt>
<wgt id='93'> +4.9575375e+02 </wgt>
<wgt id='94'> +5.0275062e+02 </wgt>
<wgt id='95'> +4.8469794e+02 </wgt>
<wgt id='96'> +5.4411661e+02 </wgt>
<wgt id='97'> +5.1308286e+02 </wgt>
<wgt id='98'> +4.8157650e+02 </wgt>
<wgt id='99'> +4.9057577e+02 </wgt>
<wgt id='100'> +5.0231801e+02 </wgt>
<wgt id='101'> +5.2825538e+02 </wgt>
<wgt id='102'> +4.8893150e+02 </wgt>
<wgt id='103'> +5.4708912e+02 </wgt>
<wgt id='104'> +5.0357697e+02 </wgt>
<wgt id='105'> +5.2514700e+02 </wgt>
<wgt id='106'> +4.6604674e+02 </wgt>
<wgt id='107'> +5.0003732e+02 </wgt>
<wgt id='108'> +4.5417698e+02 </wgt>
<wgt id='109'> +4.7530381e+02 </wgt>
<wgt id='110'> +5.0598718e+02 </wgt>
<wgt id='111'> +4.9223183e+02 </wgt>
<wgt id='112'> +4.8273976e+02 </wgt>
<wgt id='113'> +4.6446787e+02 </wgt>
<wgt id='114'> +5.0497440e+02 </wgt>
<wgt id='115'> +5.0733651e+02 </wgt>
<wgt id='116'> +5.0311084e+02 </wgt>
<wgt id='117'> +5.1205931e+02 </wgt>
<wgt id='118'> +5.1625119e+02 </wgt>
<wgt id='119'> +4.8578858e+02 </wgt>
<wgt id='120'> +5.0382531e+02 </wgt>
<wgt id='121'> +4.9108222e+02 </wgt>
<wgt id='122'> +4.9848497e+02 </wgt>
<wgt id='123'> +5.1099066e+02 </wgt>
<wgt id='124'> +5.3715815e+02 </wgt>
<wgt id='125'> +5.3854655e+02 </wgt>
<wgt id='126'> +5.2358180e+02 </wgt>
<wgt id='127'> +5.1916568e+02 </wgt>
<wgt id='128'> +4.6989956e+02 </wgt>
<wgt id='129'> +5.7051981e+02 </wgt>
<wgt id='130'> +5.0857181e+02 </wgt>
<wgt id='131'> +5.4047907e+02 </wgt>
<wgt id='132'> +4.9841705e+02 </wgt>
<wgt id='133'> +5.0042547e+02 </wgt>
<wgt id='134'> +4.7487189e+02 </wgt>
<wgt id='135'> +5.1765442e+02 </wgt>
<wgt id='136'> +4.8332341e+02 </wgt>
<wgt id='137'> +4.7533125e+02 </wgt>
<wgt id='138'> +4.5846519e+02 </wgt>
<wgt id='139'> +5.1387715e+02 </wgt>
<wgt id='140'> +5.3694171e+02 </wgt>
<wgt id='141'> +5.0380261e+02 </wgt>
<wgt id='142'> +5.0940253e+02 </wgt>
<wgt id='143'> +4.9989186e+02 </wgt>
<wgt id='144'> +5.0505424e+02 </wgt>
<wgt id='145'> +5.0594900e+02 </wgt>
</rwgt>
</event>
<event>
 4      1 +5.0481800e+02 2.03252700e+02 7.54677100e-03 1.14702300e-01
       21 -1    0    0  501  502 +0.0000000000e+00 +0.0000000000e+00 +6.1200176433e+01 6.1200176433e+01 0.0000000000e+00 0.0000e+00 -1.0000e+00
       21 -1    0    0  502  503 -0.0000000000e+00 -0.0000000000e+00 -6.8517788249e+02 6.8517788249e+02 0.0000000000e+00 0.0000e+00 -1.0000e+00
        6  1    1    2  501    0 -8.7716106814e+01 +6.0733557111e+01 -2.6656217732e+02 3.3521198476e+02 1.7300000000e+02 0.0000e+00 -1.0000e+00
       -6  1    1    2    0  503 +8.7716106814e+01 -6.0733557111e+01 -3.5741552874e+02 4.1116607416e+02 1.7300000000e+02 0.0000e+00 -1.0000e+00
<mgrwt>
<rscale>  2 0.20325275E+03</rscale>
<asrwt>0</asrwt>
<pdfrwt beam="1">  1       21 0.94154125E-02 0.20325275E+03</pdfrwt>
<pdfrwt beam="2">  1       21 0.10541197E+00 0.20325275E+03</pdfrwt>
<totfact> 0.64974510E+04</totfact>
</mgrwt>
<rwgt>
<wgt id='1'> +6.5112611e+02 </wgt>
<wgt id='2'> +6.0962422e+02 </wgt>
<wgt id='3'> +5.0481800e+02 </wgt>
<wgt id='4'> +6.5112611e+02 </wgt>
<wgt id='5'> +5.0347840e+02 </wgt>
<wgt id='6'> +6.1774818e+02 </wgt>
<wgt id='7'> +5.7512722e+02 </wgt>
<wgt id='8'> +4.7111332e+02 </wgt>
<wgt id='9'> +6.1774818e+02 </wgt>
<wgt id='10'> +4.6985687e+02 </wgt>
<wgt id='11'> +5.7650360e+02 </wgt>
<wgt id='12'> +5.3671990e+02 </wgt>
<wgt id='13'> +4.3960524e+02 </wgt>
<wgt id='14'> +5.7650360e+02 </wgt>
<wgt id='15'> +4.3843390e+02 </wgt>
<wgt id='16'> +5.3209413e+02 </wgt>
<wgt id='17'> +5.0296734e+02 </wgt>
<wgt id='18'> +4.2556958e+02 </wgt>
<wgt id='19'> +5.3209413e+02 </wgt>
<wgt id='20'> +4.2450837e+02 </wgt>
<wgt id='21'> +4.7450577e+02 </wgt>
<wgt id='22'> +3.9715600e+02 </wgt>
<wgt id='23'> +5.0481800e+02 </wgt>
<wgt id='24'> +3.9616034e+02 </wgt>
<wgt id='25'> +4.7111332e+02 </wgt>
<wgt id='26'> +4.4281800e+02 </wgt>
<wgt id='27'> +3.7059420e+02 </wgt>
<wgt id='28'> +4.7111332e+02 </wgt>
<wgt id='29'> +3.6966603e+02 </wgt>
<wgt id='30'> +4.4856380e+02 </wgt>
<wgt id='31'> +4.2547408e+02 </wgt>
<wgt id='32'> +3.6356308e+02 </wgt>
<wgt id='33'> +4.4856380e+02 </wgt>
<wgt id='34'> +3.6270526e+02 </wgt>
<wgt id='35'> +4.2556958e+02 </wgt>
<wgt id='36'> +4.0139764e+02 </wgt>
<wgt id='37'> +3.3928942e+02 </wgt>
<wgt id='38'> +4.2556958e+02 </wgt>
<wgt id='39'> +3.3848435e+02 </wgt>
<wgt id='40'> +3.9715600e+02 </wgt>
<wgt id='41'> +3.7459208e+02 </wgt>
<wgt id='42'> +3.1659773e+02 </wgt>
<wgt id='43'> +3.9715600e+02 </wgt>
<wgt id='44'> +3.1584728e+02 </wgt>
<wgt id='45'> +5.0481800e+02 </wgt>
<wgt id='46'> +5.1468324e+02 </wgt>
<wgt id='47'> +5.1783726e+02 </wgt>
<wgt id='48'> +5.0659867e+02 </wgt>
<wgt id='49'> +4.9472686e+02 </wgt>
<wgt id='50'> +5.9168382e+02 </wgt>
<wgt id='51'> +4.9131696e+02 </wgt>
<wgt id='52'> +5.0233077e+02 </wgt>
<wgt id='53'> +4.9870434e+02 </wgt>
<wgt id='54'> +5.1467273e+02 </wgt>
<wgt id='55'> +4.8719819e+02 </wgt>
<wgt id='56'> +4.6546644e+02 </wgt>
<wgt id='57'> +5.1016610e+02 </wgt>
<wgt id='58'> +4.9342628e+02 </wgt>
<wgt id='59'> +5.2531811e+02 </wgt>
<wgt id='60'> +5.0516156e+02 </wgt>
<wgt id='61'> +4.4656076e+02 </wgt>
<wgt id='62'> +4.9305911e+02 </wgt>
<wgt id='63'> +5.0895729e+02 </wgt>
<wgt id='64'> +4.9771430e+02 </wgt>
<wgt id='65'> +5.4808616e+02 </wgt>
<wgt id='66'> +4.9718699e+02 </wgt>
<wgt id='67'> +5.0744074e+02 </wgt>
<wgt id='68'> +5.5655395e+02 </wgt>
<wgt id='69'> +5.0420714e+02 </wgt>
<wgt id='70'> +5.0179145e+02 </wgt>
<wgt id='71'> +5.0661975e+02 </wgt>
<wgt id='72'> +4.8832136e+02 </wgt>
<wgt id='73'> +4.8759852e+02 </wgt>
<wgt id='74'> +5.3449027e+02 </wgt>
<wgt id='75'> +5.1675330e+02 </wgt>
<wgt id='76'> +5.0134515e+02 </wgt>
<wgt id='77'> +4.9433911e+02 </wgt>
<wgt id='78'> +4.8035727e+02 </wgt>
<wgt id='79'> +5.0220213e+02 </wgt>
<wgt id='80'> +4.8887468e+02 </wgt>
<wgt id='81'> +4.9817633e+02 </wgt>
<wgt id='82'> +4.9604572e+02 </wgt>
<wgt id='83'> +5.0751205e+02 </wgt>
<wgt id='84'> +5.3439369e+02 </wgt>
<wgt id='85'> +5.0833864e+02 </wgt>
<wgt id='86'> +5.0772764e+02 </wgt>
<wgt id='87'> +5.0730262e+02 </wgt>
<wgt id='88'> +5.0423882e+02 </wgt>
<wgt id='89'> +5.0479309e+02 </wgt>
<wgt id='90'> +5.1144358e+02 </wgt>
<wgt id='91'> +5.1013768e+02 </wgt>
<wgt id='92'> +4.6708818e+02 </wgt>
<wgt id='93'> +5.0262327e+02 </wgt>
<wgt id='94'> +4.8979801e+02 </wgt>
<wgt id='95'> +5.0337412e+02 </wgt>
<wgt id='96'> +5.3483448e+02 </wgt>
<wgt id='97'> +4.9638040e+02 </wgt>
<wgt id='98'> +4.9788925e+02 </wgt>
<wgt id='99'> +4.7604783e+02 </wgt>
<wgt id='100'> +4.6710404e+02 </wgt>
<wgt id='101'> +5.5574737e+02 </wgt>
<wgt id='102'> +5.2100032e+02 </wgt>
<wgt id='103'> +5.3577344e+02 </wgt>
<wgt id='104'> +5.1016311e+02 </wgt>
<wgt id='105'> +5.2137225e+02 </wgt>
<wgt id='106'> +4.6726993e+02 </wgt>
<wgt id='107'> +4.8422953e+02 </wgt>
<wgt id='108'> +4.5245589e+02 </wgt>
<wgt id='109'> +4.8081914e+02 </wgt>
<wgt id='110'> +4.9875704e+02 </wgt>
<wgt id='111'> +4.9265286e+02 </wgt>
<wgt id='112'> +4.8447156e+02 </wgt>
<wgt id='113'> +4.7560921e+02 </wgt>
<wgt id='114'> +4.9923094e+02 </wgt>
<wgt id='115'> +4.7832332e+02 </wgt>
<wgt id='116'> +5.2200105e+02 </wgt>
<wgt id='117'> +4.9842832e+02 </wgt>
<wgt id='118'> +5.2623865e+02 </wgt>
<wgt id='119'> +4.9952463e+02 </wgt>
<wgt id='120'> +4.9469915e+02 </wgt>
<wgt id='121'> +4.9840538e+02 </wgt>
<wgt id='122'> +4.9952893e+02 </wgt>
<wgt id='123'> +5.0476708e+02 </wgt>
<wgt id='124'> +5.5526418e+02 </wgt>
<wgt id='125'> +5.6434300e+02 </wgt>
<wgt id='126'> +5.1614056e+02 </wgt>
<wgt id='127'> +5.1376871e+02 </wgt>
<wgt id='128'> +4.6261174e+02 </wgt>
<wgt id='129'> +5.5792945e+02 </wgt>
<wgt id='130'> +4.9752038e+02 </wgt>
<wgt id='131'> +5.1982954e+02 </wgt>
<wgt id='132'> +5.3178811e+02 </wgt>
<wgt id='133'> +5.1985244e+02 </wgt>
<wgt id='134'> +4.9554771e+02 </wgt>
<wgt id='135'> +5.0890461e+02 </wgt>
<wgt id='136'> +5.2767859e+02 </wgt>
<wgt id='137'> +4.8669220e+02 </wgt>
<wgt id='138'> +4.7634670e+02 </wgt>
<wgt id='139'> +5.1922274e+02 </wgt>
<wgt id='140'> +5.1654142e+02 </wgt>
<wgt id='141'> +5.1643965e+02 </wgt>
<wgt id='142'> +4.7043858e+02 </wgt>
<wgt id='143'> +5.1550286e+02 </wgt>
<wgt id='144'> +4.9343302e+02 </wgt>
<wgt id='145'> +4.9760472e+02 </wgt>
</rwgt>
</event>
<event>
 4      1 +5.0481800e+02 2.00611200e+02 7.54677100e-03 1.14922400e-01
       21 -1    0    0  501  502 +0.0000000000e+00 +0.0000000000e+00 +2.6554949047e+03 2.6554949047e+03 0.0000000000e+00 0.0000e+00 -1.0000e+00
       21 -1    0    0  502  503 -0.0000000000e+00 -0.0000000000e+00 -2.3619600197e+01 2.3619600197e+01 0.0000000000e+00 0.0000e+00 -1.0000e+00
        6  1    1    2  501    0 +8.1595301130e+01 -6.0481824776e+01 +2.1178378521e+03 2.1273180327e+03 1.7300000000e+02 0.0000e+00 -1.0000e+00
       -6  1    1    2    0  503 -8.1595301130e+01 +6.0481824776e+01 +5.1403745233e+02 5.5179647216e+02 1.7300000000e+02 0.0000e+00 -1.0000e+00
<mgrwt>
<rscale>  2 0.20061118E+03</rscale>
<asrwt>0</asrwt>
<pdfrwt beam="1">  1       21 0.40853744E+00 0.20061118E+03</pdfrwt>
<pdfrwt beam="2">  1       21 0.36337868E-02 0.20061118E+03</pdfrwt>
<totfact> 0.35063300E+03</totfact>
</mgrwt>
<rwgt>
<wgt id='1'> +7.4465083e+02 </wgt>
<wgt id='2'> +7.2724044e+02 </wgt>
<wgt id='3'> +5.0481800e+02 </wgt>
<wgt id='4'> +7.4465083e+02 </wgt>
<wgt id='5'> +4.4898938e+02 </wgt>
<wgt id='6'> +6.1818839e+02 </wgt>
<wgt id='7'> +6.0366995e+02 </wgt>
<wgt id='8'> +4.1963446e+02 </wgt>
<wgt id='9'> +6.1818839e+02 </wgt>
<wgt id='10'> +3.7508590e+02 </wgt>
<wgt id='11'> +5.1387460e+02 </wgt>
<wgt id='12'> +5.0223648e+02 </wgt>
<wgt id='13'> +3.5400561e+02 </wgt>
<wgt id='14'> +5.1387460e+02 </wgt>
<wgt id='15'> +3.1781499e+02 </wgt>
<wgt id='16'> +6.0808833e+02 </wgt>
<wgt id='17'> +5.9519923e+02 </wgt>
<wgt id='18'> +4.2544476e+02 </wgt>
<wgt id='19'> +6.0808833e+02 </wgt>
<wgt id='20'> +3.8006822e+02 </wgt>
<wgt id='21'> +4.9406479e+02 </wgt>
<wgt id='22'> +3.5365474e+02 </wgt>
<wgt id='23'> +5.0481800e+02 </wgt>
<wgt id='24'> +3.1750914e+02 </wgt>
<wgt id='25'> +4.1963446e+02 </wgt>
<wgt id='26'> +4.1104806e+02 </wgt>
<wgt id='27'> +2.9834481e+02 </wgt>
<wgt id='28'> +4.1963446e+02 </wgt>
<wgt id='29'> +2.6902948e+02 </wgt>
<wgt id='30'> +5.1247774e+02 </wgt>
<wgt id='31'> +5.0204651e+02 </wgt>
<wgt id='32'> +3.6337071e+02 </wgt>
<wgt id='33'> +5.1247775e+02 </wgt>
<wgt id='34'> +3.2587939e+02 </wgt>
<wgt id='35'> +4.2544475e+02 </wgt>
<wgt id='36'> +4.1674029e+02 </wgt>
<wgt id='37'> +3.0205513e+02 </wgt>
<wgt id='38'> +4.2544476e+02 </wgt>
<wgt id='39'> +2.7223976e+02 </wgt>
<wgt id='40'> +3.5365474e+02 </wgt>
<wgt id='41'> +3.4671625e+02 </wgt>
<wgt id='42'> +2.5481513e+02 </wgt>
<wgt id='43'> +3.5365474e+02 </wgt>
<wgt id='44'> +2.3067217e+02 </wgt>
<wgt id='45'> +5.0481800e+02 </wgt>
<wgt id='46'> +5.0739936e+02 </wgt>
<wgt id='47'> +6.3938622e+02 </wgt>
<wgt id='48'> +4.8633554e+02 </wgt>
<wgt id='49'> +4.1539810e+02 </wgt>
<wgt id='50'> +6.8497658e+02 </wgt>
<wgt id='51'> +5.3643226e+02 </wgt>
<wgt id='52'> +3.8216234e+02 </wgt>
<wgt id='53'> +6.1245356e+02 </wgt>
<wgt id='54'> +5.2118151e+02 </wgt>
<wgt id='55'> +6.5168775e+02 </wgt>
<wgt id='56'> +4.7774590e+02 </wgt>
<wgt id='57'> +5.9858264e+02 </wgt>
<wgt id='58'> +3.9885942e+02 </wgt>
<wgt id='59'> +5.7399904e+02 </wgt>
<wgt id='60'> +4.9942157e+02 </wgt>
<wgt id='61'> +3.7338358e+02 </wgt>
<wgt id='62'> +4.2000543e+02 </wgt>
<wgt id='63'> +5.4515138e+02 </wgt>
<wgt id='64'> +5.0700771e+02 </wgt>
<wgt id='65'> +3.5413299e+02 </wgt>
<wgt id='66'> +4.9802477e+02 </wgt>
<wgt id='67'> +4.6937060e+02 </wgt>
<wgt id='68'> +8.6848691e+02 </wgt>
<wgt id='69'> +6.0909475e+02 </wgt>
<wgt id='70'> +7.8451452e+02 </wgt>
<wgt id='71'> +4.2697440e+02 </wgt>
<wgt id='72'> +3.8222565e+02 </wgt>
<wgt id='73'> +3.8541415e+02 </wgt>
<wgt id='74'> +7.6576104e+02 </wgt>
<wgt id='75'> +6.4741978e+02 </wgt>
<wgt id='76'> +4.6766158e+02 </wgt>
<wgt id='77'> +4.0003779e+02 </wgt>
<wgt id='78'> +4.1302446e+02 </wgt>
<wgt id='79'> +5.6644602e+02 </wgt>
<wgt id='80'> +2.9122984e+02 </wgt>
<wgt id='81'> +5.6860535e+02 </wgt>
<wgt id='82'> +4.6247236e+02 </wgt>
<wgt id='83'> +5.0838239e+02 </wgt>
<wgt id='84'> +3.7168719e+02 </wgt>
<wgt id='85'> +4.2106686e+02 </wgt>
<wgt id='86'> +5.0789693e+02 </wgt>
<wgt id='87'> +4.4087498e+02 </wgt>
<wgt id='88'> +5.7191820e+02 </wgt>
<wgt id='89'> +2.5552833e+02 </wgt>
<wgt id='90'> +3.8116899e+02 </wgt>
<wgt id='91'> +3.4171761e+02 </wgt>
<wgt id='92'> +4.4589973e+02 </wgt>
<wgt id='93'> +5.6769236e+02 </wgt>
<wgt id='94'> +3.6195452e+02 </wgt>
<wgt id='95'> +5.2767821e+02 </wgt>
<wgt id='96'> +4.2699742e+02 </wgt>
<wgt id='97'> +4.0504775e+02 </wgt>
<wgt id='98'> +6.8168017e+02 </wgt>
<wgt id='99'> +3.5951462e+02 </wgt>
<wgt id='100'> +2.9326507e+02 </wgt>
<wgt id='101'> +6.8579100e+02 </wgt>
<wgt id='102'> +6.6053939e+02 </wgt>
<wgt id='103'> +4.1230105e+02 </wgt>
<wgt id='104'> +5.6330073e+02 </wgt>
<wgt id='105'> +5.4442543e+02 </wgt>
<wgt id='106'> +5.0946656e+02 </wgt>
<wgt id='107'> +5.4125882e+02 </wgt>
<wgt id='108'> +4.5318364e+02 </wgt>
<wgt id='109'> +5.4119553e+02 </wgt>
<wgt id='110'> +3.1142227e+02 </wgt>
<wgt id='111'> +4.6537998e+02 </wgt>
<wgt id='112'> +5.2003191e+02 </wgt>
<wgt id='113'> +6.6362827e+02 </wgt>
<wgt id='114'> +3.3648835e+02 </wgt>
<wgt id='115'> +4.7899187e+02 </wgt>
<wgt id='116'> +6.2561620e+02 </wgt>
<wgt id='117'> +5.5531286e+02 </wgt>
<wgt id='118'> +5.1252894e+02 </wgt>
<wgt id='119'> +5.1713849e+02 </wgt>
<wgt id='120'> +4.4845206e+02 </wgt>
<wgt id='121'> +4.4836480e+02 </wgt>
<wgt id='122'> +4.3404553e+02 </wgt>
<wgt id='123'> +4.2295510e+02 </wgt>
<wgt id='124'> +5.8826894e+02 </wgt>
<wgt id='125'> +8.7401003e+02 </wgt>
<wgt id='126'> +4.7459581e+02 </wgt>
<wgt id='127'> +4.5967639e+02 </wgt>
<wgt id='128'> +5.0536514e+02 </wgt>
<wgt id='129'> +4.6843451e+02 </wgt>
<wgt id='130'> +4.3001715e+02 </wgt>
<wgt id='131'> +4.0746028e+02 </wgt>
<wgt id='132'> +5.3412599e+02 </wgt>
<wgt id='133'> +5.3987510e+02 </wgt>
<wgt id='134'> +6.3630018e+02 </wgt>
<wgt id='135'> +4.7832646e+02 </wgt>
<wgt id='136'> +6.7340110e+02 </wgt>
<wgt id='137'> +5.9356358e+02 </wgt>
<wgt id='138'> +6.3595482e+02 </wgt>
<wgt id='139'> +5.5349652e+02 </wgt>
<wgt id='140'> +4.6148065e+02 </wgt>
<wgt id='141'> +7.7102885e+02 </wgt>
<wgt id='142'> +2.0649571e+02 </wgt>
<wgt id='143'> +5.4635530e+02 </wgt>
<wgt id='144'> +4.1872915e+02 </wgt>
<wgt id='145'> +4.0511702e+02 </wgt>
</rwgt>
</event>
<event>
 4      1 +5.0481800e+02 2.04361000e+02 7.54677100e-03 1.14611100e-01
       21 -1    0    0  503  502 +0.0000000000e+00 +0.0000000000e+00 +9.0362528925e+01 9.0362528925e+01 0.0000000000e+00 0.0000e+00 1.0000e+00
       21 -1    0    0  501  503 -0.0000000000e+00 -0.0000000000e+00 -8.3972394667e+02 8.3972394667e+02 0.0000000000e+00 0.0000e+00 1.0000e+00
        6  1    1    2  501    0 +4.1245841687e+01 -1.0066386100e+02 -6.8650566147e+02 7.1627749902e+02 1.7300000000e+02 0.0000e+00 1.0000e+00
       -6  1    1    2    0  502 -4.1245841687e+01 +1.0066386100e+02 -6.2855756275e+01 2.1380897658e+02 1.7300000000e+02 0.0000e+00 1.0000e+00
<mgrwt>
<rscale>  2 0.20436103E+03</rscale>
<asrwt>0</asrwt>
<pdfrwt beam="1">  1       21 0.13901928E-01 0.20436103E+03</pdfrwt>
<pdfrwt beam="2">  1       21 0.12918829E+00 0.20436103E+03</pdfrwt>
<totfact> 0.19626099E+04</totfact>
</mgrwt>
<rwgt>
<wgt id='1'> +6.6677315e+02 </wgt>
<wgt id='2'> +5.7234714e+02 </wgt>
<wgt id='3'> +5.0481800e+02 </wgt>
<wgt id='4'> +6.6677315e+02 </wgt>
<wgt id='5'> +4.5023608e+02 </wgt>
<wgt id='6'> +6.1756266e+02 </wgt>
<wgt id='7'> +5.2474823e+02 </wgt>
<wgt id='8'> +4.6115556e+02 </wgt>
<wgt id='9'> +6.1756265e+02 </wgt>
<wgt id='10'> +4.1163833e+02 </wgt>
<wgt id='11'> +5.6414877e+02 </wgt>
<wgt id='12'> +4.7985621e+02 </wgt>
<wgt id='13'> +4.2208483e+02 </wgt>
<wgt id='14'> +5.6414877e+02 </wgt>
<wgt id='15'> +3.7712159e+02 </wgt>
<wgt id='16'> +5.4504444e+02 </wgt>
<wgt id='17'> +4.7719269e+02 </wgt>
<wgt id='18'> +4.2561952e+02 </wgt>
<wgt id='19'> +5.4504443e+02 </wgt>
<wgt id='20'> +3.8184262e+02 </wgt>
<wgt id='21'> +4.3750724e+02 </wgt>
<wgt id='22'> +3.8880707e+02 </wgt>
<wgt id='23'> +5.0481800e+02 </wgt>
<wgt id='24'> +3.4910809e+02 </wgt>
<wgt id='25'> +4.6115557e+02 </wgt>
<wgt id='26'> +4.0007865e+02 </wgt>
<wgt id='27'> +3.5586596e+02 </wgt>
<wgt id='28'> +4.6115556e+02 </wgt>
<wgt id='29'> +3.1983464e+02 </wgt>
<wgt id='30'> +4.5953503e+02 </wgt>
<wgt id='31'> +4.0530398e+02 </wgt>
<wgt id='32'> +3.6364137e+02 </wgt>
<wgt id='33'> +4.5953502e+02 </wgt>
<wgt id='34'> +3.2792656e+02 </wgt>
<wgt id='35'> +4.2561952e+02 </wgt>
<wgt id='36'> +3.7159712e+02 </wgt>
<wgt id='37'> +3.3218950e+02 </wgt>
<wgt id='38'> +4.2561952e+02 </wgt>
<wgt id='39'> +2.9981414e+02 </wgt>
<wgt id='40'> +3.8880708e+02 </wgt>
<wgt id='41'> +3.3980712e+02 </wgt>
<wgt id='42'> +3.0404523e+02 </wgt>
<wgt id='43'> +3.8880707e+02 </wgt>
<wgt id='44'> +2.7467409e+02 </wgt>
<wgt id='45'> +5.0481800e+02 </wgt>
<wgt id='46'> +5.1863372e+02 </wgt>
<wgt id='47'> +5.2009340e+02 </wgt>
<wgt id='48'> +5.0755533e+02 </wgt>
<wgt id='49'> +4.8766016e+02 </wgt>
<wgt id='50'> +6.0537998e+02 </wgt>
<wgt id='51'> +4.8701010e+02 </wgt>
<wgt id='52'> +4.9766762e+02 </wgt>
<wgt id='53'> +4.9823895e+02 </wgt>
<wgt id='54'> +5.2054980e+02 </wgt>
<wgt id='55'> +5.0022507e+02 </wgt>
<wgt id='56'> +4.6329524e+02 </wgt>
<wgt id='57'> +5.1681430e+02 </wgt>
<wgt id='58'> +4.8236902e+02 </wgt>
<wgt id='59'> +5.3398631e+02 </wgt>
<wgt id='60'> +5.0568686e+02 </wgt>
<wgt id='61'> +4.3891993e+02 </wgt>
<wgt id='62'> +4.8764746e+02 </wgt>
<wgt id='63'> +5.1329407e+02 </wgt>
<wgt id='64'> +4.9770141e+02 </wgt>
<wgt id='65'> +5.3708501e+02 </wgt>
<wgt id='66'> +4.9946459e+02 </wgt>
<wgt id='67'> +5.0719400e+02 </wgt>
<wgt id='68'> +5.7075323e+02 </wgt>
<wgt id='69'> +5.1522601e+02 </wgt>
<wgt id='70'> +5.0658138e+02 </wgt>
<wgt id='71'> +5.0025830e+02 </wgt>
<wgt id='72'> +4.7962567e+02 </wgt>
<wgt id='73'> +4.7818428e+02 </wgt>
<wgt id='74'> +5.4569127e+02 </wgt>
<wgt id='75'> +5.2259919e+02 </wgt>
<wgt id='76'> +5.0493656e+02 </wgt>
<wgt id='77'> +4.9228285e+02 </wgt>
<wgt id='78'> +4.6789172e+02 </wgt>
<wgt id='79'> +5.0921225e+02 </wgt>
<wgt id='80'> +4.7938264e+02 </wgt>
<wgt id='81'> +5.0034633e+02 </wgt>
<wgt id='82'> +4.9027572e+02 </wgt>
<wgt id='83'> +5.0728941e+02 </wgt>
<wgt id='84'> +5.3061313e+02 </wgt>
<wgt id='85'> +4.9831198e+02 </wgt>
<wgt id='86'> +5.1294941e+02 </wgt>
<wgt id='87'> +5.0681213e+02 </wgt>
<wgt id='88'> +5.0244587e+02 </wgt>
<wgt id='89'> +4.9241315e+02 </wgt>
<wgt id='90'> +5.0566440e+02 </wgt>
<wgt id='91'> +4.9645977e+02 </wgt>
<wgt id='92'> +4.6190468e+02 </wgt>
<wgt id='93'> +5.0455281e+02 </wgt>
<wgt id='94'> +4.8153384e+02 </wgt>
<wgt id='95'> +5.0970281e+02 </wgt>
<wgt id='96'> +5.3721203e+02 </wgt>
<wgt id='97'> +4.8751024e+02 </wgt>
<wgt id='98'> +5.0580604e+02 </wgt>
<wgt id='99'> +4.6289021e+02 </wgt>
<wgt id='100'> +4.4447549e+02 </wgt>
<wgt id='101'> +5.6995676e+02 </wgt>
<wgt id='102'> +5.3561625e+02 </wgt>
<wgt id='103'> +5.2926625e+02 </wgt>
<wgt id='104'> +5.1802099e+02 </wgt>
<wgt id='105'> +5.2014429e+02 </wgt>
<wgt id='106'> +4.6587030e+02 </wgt>
<wgt id='107'> +4.7841541e+02 </wgt>
<wgt id='108'> +4.5032697e+02 </wgt>
<wgt id='109'> +4.8176134e+02 </wgt>
<wgt id='110'> +4.9093721e+02 </wgt>
<wgt id='111'> +4.9180404e+02 </wgt>
<wgt id='112'> +4.9018682e+02 </wgt>
<wgt id='113'> +4.8102836e+02 </wgt>
<wgt id='114'> +5.0191907e+02 </wgt>
<wgt id='115'> +4.7218992e+02 </wgt>
<wgt id='116'> +5.3295551e+02 </wgt>
<wgt id='117'> +4.9612452e+02 </wgt>
<wgt id='118'> +5.3013330e+02 </wgt>
<wgt id='119'> +5.0798614e+02 </wgt>
<wgt id='120'> +4.9825060e+02 </wgt>
<wgt id='121'> +4.9838483e+02 </wgt>
<wgt id='122'> +4.9853256e+02 </wgt>
<wgt id='123'> +5.0273974e+02 </wgt>
<wgt id='124'> +5.6592367e+02 </wgt>
<wgt id='125'> +5.8347792e+02 </wgt>
<wgt id='126'> +5.1365548e+02 </wgt>
<wgt id='127'> +5.0970163e+02 </wgt>
<wgt id='128'> +4.6341221e+02 </wgt>
<wgt id='129'> +5.5410592e+02 </wgt>
<wgt id='130'> +4.9401694e+02 </wgt>
<wgt id='131'> +5.0932915e+02 </wgt>
<wgt id='132'> +5.4054036e+02 </wgt>
<wgt id='133'> +5.2935236e+02 </wgt>
<wgt id='134'> +5.0179724e+02 </wgt>
<wgt id='135'> +5.0366933e+02 </wgt>
<wgt id='136'> +5.4517977e+02 </wgt>
<wgt id='137'> +4.9383994e+02 </wgt>
<wgt id='138'> +4.8652903e+02 </wgt>
<wgt id='139'> +5.2079529e+02 </wgt>
<wgt id='140'> +5.1049564e+02 </wgt>
<wgt id='141'> +5.2776589e+02 </wgt>
<wgt id='142'> +4.4338974e+02 </wgt>
<wgt id='143'> +5.1758482e+02 </wgt>
<wgt id='144'> +4.8367580e+02 </wgt>
<wgt id='145'> +4.9084243e+02 </wgt>
</rwgt>
</event>
<event>
 4      1 +5.0481800e+02 1.88885100e+02 7.54677100e-03 1.15947100e-01
       21 -1    0    0  501  502 +0.0000000000e+00 +0.0000000000e+00 +2.2980533158e+02 2.2980533158e+02 0.0000000000e+00 0.0000e+00 1.0000e+00
       21 -1    0    0  502  503 -0.0000000000e+00 -0.0000000000e+00 -2.3112753523e+02 2.3112753523e+02 0.0000000000e+00 0.0000e+00 -1.0000e+00
        6  1    1    2  501    0 +1.1729196272e+01 -7.4906565239e+01 +1.3138781256e+02 2.3008764602e+02 1.7300000000e+02 0.0000e+00 1.0000e+00
       -6  1    1    2    0  503 -1.1729196272e+01 +7.4906565239e+01 -1.3271001620e+02 2.3084522079e+02 1.7300000000e+02 0.0000e+00 -1.0000e+00
<mgrwt>
<rscale>  2 0.18888506E+03</rscale>
<asrwt>0</asrwt>
<pdfrwt beam="1">  1       21 0.35354667E-01 0.18888506E+03</pdfrwt>
<pdfrwt beam="2">  1       21 0.35558082E-01 0.18888506E+03</pdfrwt>
<totfact> 0.58920983E+04</totfact>
</mgrwt>
<rwgt>
<wgt id='1'> +6.5044463e+02 </wgt>
<wgt id='2'> +6.0467300e+02 </wgt>
<wgt id='3'> +5.0481800e+02 </wgt>
<wgt id='4'> +6.5044462e+02 </wgt>
<wgt id='5'> +4.7076046e+02 </wgt>
<wgt id='6'> +6.2005316e+02 </wgt>
<wgt id='7'> +5.7301066e+02 </wgt>
<wgt id='8'> +4.7275537e+02 </wgt>
<wgt id='9'> +6.2005315e+02 </wgt>
<wgt id='10'> +4.4071830e+02 </wgt>
<wgt id='11'> +5.8067158e+02 </wgt>
<wgt id='12'> +5.3644306e+02 </wgt>
<wgt id='13'> +4.4256196e+02 </wgt>
<wgt id='14'> +5.8067157e+02 </wgt>
<wgt id='15'> +4.1261165e+02 </wgt>
<wgt id='16'> +5.2956130e+02 </wgt>
<wgt id='17'> +4.9748781e+02 </wgt>
<wgt id='18'> +4.2476936e+02 </wgt>
<wgt id='19'> +5.2956130e+02 </wgt>
<wgt id='20'> +3.9782835e+02 </wgt>
<wgt id='21'> +4.7143799e+02 </wgt>
<wgt id='22'> +3.9779089e+02 </wgt>
<wgt id='23'> +5.0481800e+02 </wgt>
<wgt id='24'> +3.7244044e+02 </wgt>
<wgt id='25'> +4.7275538e+02 </wgt>
<wgt id='26'> +4.4135241e+02 </wgt>
<wgt id='27'> +3.7238522e+02 </wgt>
<wgt id='28'> +4.7275537e+02 </wgt>
<wgt id='29'> +3.4868819e+02 </wgt>
<wgt id='30'> +4.4558914e+02 </wgt>
<wgt id='31'> +4.2038059e+02 </wgt>
<wgt id='32'> +3.6239865e+02 </wgt>
<wgt id='33'> +4.4558914e+02 </wgt>
<wgt id='34'> +3.4061721e+02 </wgt>
<wgt id='35'> +4.2476937e+02 </wgt>
<wgt id='36'> +3.9836831e+02 </wgt>
<wgt id='37'> +3.3938155e+02 </wgt>
<wgt id='38'> +4.2476936e+02 </wgt>
<wgt id='39'> +3.1888030e+02 </wgt>
<wgt id='40'> +3.9779089e+02 </wgt>
<wgt id='41'> +3.7294579e+02 </wgt>
<wgt id='42'> +3.1770630e+02 </wgt>
<wgt id='43'> +3.9779089e+02 </wgt>
<wgt id='44'> +2.9854383e+02 </wgt>
<wgt id='45'> +5.0481800e+02 </wgt>
<wgt id='46'> +5.0430806e+02 </wgt>
<wgt id='47'> +5.2350019e+02 </wgt>
<wgt id='48'> +5.0636888e+02 </wgt>
<wgt id='49'> +5.0434833e+02 </wgt>
<wgt id='50'> +5.9045565e+02 </wgt>
<wgt id='51'> +4.9517358e+02 </wgt>
<wgt id='52'> +5.0169038e+02 </wgt>
<wgt id='53'> +5.1190493e+02 </wgt>
<wgt id='54'> +5.0751295e+02 </wgt>
<wgt id='55'> +4.4808252e+02 </wgt>
<wgt id='56'> +4.6975274e+02 </wgt>
<wgt id='57'> +4.8971495e+02 </wgt>
<wgt id='58'> +5.0890124e+02 </wgt>
<wgt id='59'> +4.9517110e+02 </wgt>
<wgt id='60'> +4.8226024e+02 </wgt>
<wgt id='61'> +4.9503329e+02 </wgt>
<wgt id='62'> +4.9845732e+02 </wgt>
<wgt id='63'> +5.0521380e+02 </wgt>
<wgt id='64'> +5.0052840e+02 </wgt>
<wgt id='65'> +5.9986132e+02 </wgt>
<wgt id='66'> +4.9246763e+02 </wgt>
<wgt id='67'> +5.0949175e+02 </wgt>
<wgt id='68'> +5.4012361e+02 </wgt>
<wgt id='69'> +4.9195893e+02 </wgt>
<wgt id='70'> +4.9607849e+02 </wgt>
<wgt id='71'> +5.1465187e+02 </wgt>
<wgt id='72'> +4.8997868e+02 </wgt>
<wgt id='73'> +4.9860800e+02 </wgt>
<wgt id='74'> +5.1925349e+02 </wgt>
<wgt id='75'> +5.1632387e+02 </wgt>
<wgt id='76'> +4.8892458e+02 </wgt>
<wgt id='77'> +4.8539320e+02 </wgt>
<wgt id='78'> +5.0680648e+02 </wgt>
<wgt id='79'> +4.8278797e+02 </wgt>
<wgt id='80'> +5.0103983e+02 </wgt>
<wgt id='81'> +4.9523101e+02 </wgt>
<wgt id='82'> +5.2029106e+02 </wgt>
<wgt id='83'> +5.1614755e+02 </wgt>
<wgt id='84'> +5.5651586e+02 </wgt>
<wgt id='85'> +5.3331427e+02 </wgt>
<wgt id='86'> +5.0131955e+02 </wgt>
<wgt id='87'> +5.0462585e+02 </wgt>
<wgt id='88'> +5.1445867e+02 </wgt>
<wgt id='89'> +5.1744296e+02 </wgt>
<wgt id='90'> +5.1001520e+02 </wgt>
<wgt id='91'> +5.3915181e+02 </wgt>
<wgt id='92'> +4.6315645e+02 </wgt>
<wgt id='93'> +4.9570755e+02 </wgt>
<wgt id='94'> +5.0266573e+02 </wgt>
<wgt id='95'> +4.8247173e+02 </wgt>
<wgt id='96'> +5.4713014e+02 </wgt>
<wgt id='97'> +5.1366309e+02 </wgt>
<wgt id='98'> +4.8018455e+02 </wgt>
<wgt id='99'> +4.9075106e+02 </wgt>
<wgt id='100'> +5.0269602e+02 </wgt>
<wgt id='101'> +5.2880197e+02 </wgt>
<wgt id='102'> +4.8811902e+02 </wgt>
<wgt id='103'> +5.4945160e+02 </wgt>
<wgt id='104'> +5.0386831e+02 </wgt>
<wgt id='105'> +5.2495649e+02 </wgt>
<wgt id='106'> +4.6353591e+02 </wgt>
<wgt id='107'> +4.9949639e+02 </wgt>
<wgt id='108'> +4.5184565e+02 </wgt>
<wgt id='109'> +4.7352013e+02 </wgt>
<wgt id='110'> +5.0601205e+02 </wgt>
<wgt id='111'> +4.9129629e+02 </wgt>
<wgt id='112'> +4.8178459e+02 </wgt>
<wgt id='113'> +4.6231412e+02 </wgt>
<wgt id='114'> +5.0416657e+02 </wgt>
<wgt id='115'> +5.0820925e+02 </wgt>
<wgt id='116'> +5.0342603e+02 </wgt>
<wgt id='117'> +5.1279639e+02 </wgt>
<wgt id='118'> +5.1706927e+02 </wgt>
<wgt id='119'> +4.8417365e+02 </wgt>
<wgt id='120'> +5.0436555e+02 </wgt>
<wgt id='121'> +4.8982795e+02 </wgt>
<wgt id='122'> +4.9797322e+02 </wgt>
<wgt id='123'> +5.1197696e+02 </wgt>
<wgt id='124'> +5.3820413e+02 </wgt>
<wgt id='125'> +5.3916447e+02 </wgt>
<wgt id='126'> +5.2514405e+02 </wgt>
<wgt id='127'> +5.2026862e+02 </wgt>
<wgt id='128'> +4.6922004e+02 </wgt>
<wgt id='129'> +5.7304328e+02 </wgt>
<wgt id='130'> +5.0997736e+02 </wgt>
<wgt id='131'> +5.4244059e+02 </wgt>
<wgt id='132'> +4.9650525e+02 </wgt>
<wgt id='133'> +5.0014445e+02 </wgt>
<wgt id='134'> +4.7289891e+02 </wgt>
<wgt id='135'> +5.1849396e+02 </wgt>
<wgt id='136'> +4.8056188e+02 </wgt>
<wgt id='137'> +4.7454612e+02 </wgt>
<wgt id='138'> +4.5786510e+02 </wgt>
<wgt id='139'> +5.1429870e+02 </wgt>
<wgt id='140'> +5.3850606e+02 </wgt>
<wgt id='141'> +5.0351939e+02 </wgt>
<wgt id='142'> +5.1074523e+02 </wgt>
<wgt id='143'> +4.9887165e+02 </wgt>
<wgt id='144'> +5.0480203e+02 </wgt>
<wgt id='145'> +5.0616894e+02 </wgt>
</rwgt>
</event>
<event>
 4      1 +5.0481800e+02 1.76693800e+02 7.54677100e-03 1.17104200e-01
       21 -1    0    0  503  502 +0.0000000000e+00 +0.0000000000e+00 +2.2473136191e+03 2.2473136191e+03 0.0000000000e+00 0.0000e+00 -1.0000e+00
       21 -1    0    0  501  503 -0.0000000000e+00 -0.0000000000e+00 -1.6199680109e+01 1.6199680109e+01 0.0000000000e+00 0.0000e+00 -1.0000e+00
        6  1    1    2  501    0 +2.4512584344e+01 +2.6283633992e+01 +6.8844167990e+02 7.1075498087e+02 1.7300000000e+02 0.0000e+00 -1.0000e+00
       -6  1    1    2    0  502 -2.4512584344e+01 -2.6283633992e+01 +1.5426722591e+03 1.5527583184e+03 1.7300000000e+02 0.0000e+00 -1.0000e+00
<mgrwt>
<rscale>  2 0.17669379E+03</rscale>
<asrwt>0</asrwt>
<pdfrwt beam="1">  1       21 0.34574031E+00 0.17669379E+03</pdfrwt>
<pdfrwt beam="2">  1       21 0.24922603E-02 0.17669379E+03</pdfrwt>
<totfact> 0.16216424E+04</totfact>
</mgrwt>
<rwgt>
<wgt id='1'> +7.1850580e+02 </wgt>
<wgt id='2'> +1.1761218e+03 </wgt>
<wgt id='3'> +5.0481800e+02 </wgt>
<wgt id='4'> +7.1850580e+02 </wgt>
<wgt id='5'> +4.8630349e+02 </wgt>
<wgt id='6'> +6.2199157e+02 </wgt>
<wgt id='7'> +1.0120181e+03 </wgt>
<wgt id='8'> +4.3389827e+02 </wgt>
<wgt id='9'> +6.2199157e+02 </wgt>
<wgt id='10'> +4.1813831e+02 </wgt>
<wgt id='11'> +5.3461063e+02 </wgt>
<wgt id='12'> +8.7547896e+02 </wgt>
<wgt id='13'> +3.7617777e+02 </wgt>
<wgt id='14'> +5.3461063e+02 </wgt>
<wgt id='15'> +3.6287920e+02 </wgt>
<wgt id='16'> +5.8315045e+02 </wgt>
<wgt id='17'> +9.2343399e+02 </wgt>
<wgt id='18'> +4.2389495e+02 </wgt>
<wgt id='19'> +5.8315044e+02 </wgt>
<wgt id='20'> +4.0930893e+02 </wgt>
<wgt id='21'> +7.9458765e+02 </wgt>
<wgt id='22'> +3.6434375e+02 </wgt>
<wgt id='23'> +5.0481800e+02 </wgt>
<wgt id='24'> +3.5193608e+02 </wgt>
<wgt id='25'> +4.3389827e+02 </wgt>
<wgt id='26'> +6.8738375e+02 </wgt>
<wgt id='27'> +3.1587593e+02 </wgt>
<wgt id='28'> +4.3389827e+02 </wgt>
<wgt id='29'> +3.0542594e+02 </wgt>
<wgt id='30'> +4.8967059e+02 </wgt>
<wgt id='31'> +7.4409848e+02 </wgt>
<wgt id='32'> +3.6121244e+02 </wgt>
<wgt id='33'> +4.8967059e+02 </wgt>
<wgt id='34'> +3.4927236e+02 </wgt>
<wgt id='35'> +4.2389495e+02 </wgt>
<wgt id='36'> +6.4027474e+02 </wgt>
<wgt id='37'> +3.1046725e+02 </wgt>
<wgt id='38'> +4.2389495e+02 </wgt>
<wgt id='39'> +3.0031484e+02 </wgt>
<wgt id='40'> +3.6434376e+02 </wgt>
<wgt id='41'> +5.5389038e+02 </wgt>
<wgt id='42'> +2.6916649e+02 </wgt>
<wgt id='43'> +3.6434375e+02 </wgt>
<wgt id='44'> +2.6062671e+02 </wgt>
<wgt id='45'> +5.0481800e+02 </wgt>
<wgt id='46'> +5.0913487e+02 </wgt>
<wgt id='47'> +6.2208330e+02 </wgt>
<wgt id='48'> +5.0620617e+02 </wgt>
<wgt id='49'> +4.3409948e+02 </wgt>
<wgt id='50'> +6.1443373e+02 </wgt>
<wgt id='51'> +4.9283179e+02 </wgt>
<wgt id='52'> +3.9235449e+02 </wgt>
<wgt id='53'> +5.8162920e+02 </wgt>
<wgt id='54'> +5.3249527e+02 </wgt>
<wgt id='55'> +6.5480885e+02 </wgt>
<wgt id='56'> +4.9211796e+02 </wgt>
<wgt id='57'> +5.6503246e+02 </wgt>
<wgt id='58'> +4.0920650e+02 </wgt>
<wgt id='59'> +5.5376362e+02 </wgt>
<wgt id='60'> +4.8834091e+02 </wgt>
<wgt id='61'> +3.7247797e+02 </wgt>
<wgt id='62'> +4.2326698e+02 </wgt>
<wgt id='63'> +5.3964793e+02 </wgt>
<wgt id='64'> +5.0957461e+02 </wgt>
<wgt id='65'> +3.5757263e+02 </wgt>
<wgt id='66'> +5.1956898e+02 </wgt>
<wgt id='67'> +4.8023213e+02 </wgt>
<wgt id='68'> +8.0572840e+02 </wgt>
<wgt id='69'> +6.1275192e+02 </wgt>
<wgt id='70'> +7.2233100e+02 </wgt>
<wgt id='71'> +4.1764006e+02 </wgt>
<wgt id='72'> +3.9368388e+02 </wgt>
<wgt id='73'> +4.2088844e+02 </wgt>
<wgt id='74'> +7.1387037e+02 </wgt>
<wgt id='75'> +6.6996799e+02 </wgt>
<wgt id='76'> +5.0294197e+02 </wgt>
<wgt id='77'> +4.1903585e+02 </wgt>
<wgt id='78'> +3.9998977e+02 </wgt>
<wgt id='79'> +5.9469398e+02 </wgt>
<wgt id='80'> +3.5183673e+02 </wgt>
<wgt id='81'> +5.6909081e+02 </wgt>
<wgt id='82'> +4.8550888e+02 </wgt>
<wgt id='83'> +5.0217021e+02 </wgt>
<wgt id='84'> +4.0537987e+02 </wgt>
<wgt id='85'> +4.0804832e+02 </wgt>
<wgt id='86'> +5.6322066e+02 </wgt>
<wgt id='87'> +4.6069615e+02 </wgt>
<wgt id='88'> +5.5803686e+02 </wgt>
<wgt id='89'> +2.8087586e+02 </wgt>
<wgt id='90'> +3.8844344e+02 </wgt>
<wgt id='91'> +3.5121434e+02 </wgt>
<wgt id='92'> +4.7013452e+02 </wgt>
<wgt id='93'> +5.5100322e+02 </wgt>
<wgt id='94'> +4.1331592e+02 </wgt>
<wgt id='95'> +5.2193718e+02 </wgt>
<wgt id='96'> +4.7804497e+02 </wgt>
<wgt id='97'> +4.0811032e+02 </wgt>
<wgt id='98'> +6.5736870e+02 </wgt>
<wgt id='99'> +3.6427621e+02 </wgt>
<wgt id='100'> +2.9962231e+02 </wgt>
<wgt id='101'> +6.3475903e+02 </wgt>
<wgt id='102'> +6.2292769e+02 </wgt>
<wgt id='103'> +4.0734849e+02 </wgt>
<wgt id='104'> +5.7551283e+02 </wgt>
<wgt id='105'> +5.1969871e+02 </wgt>
<wgt id='106'> +5.2808325e+02 </wgt>
<wgt id='107'> +5.4038467e+02 </wgt>
<wgt id='108'> +4.5817090e+02 </wgt>
<wgt id='109'> +5.1876264e+02 </wgt>
<wgt id='110'> +3.6813714e+02 </wgt>
<wgt id='111'> +4.6563351e+02 </wgt>
<wgt id='112'> +5.1981541e+02 </wgt>
<wgt id='113'> +6.6039214e+02 </wgt>
<wgt id='114'> +4.2557771e+02 </wgt>
<wgt id='115'> +4.8976400e+02 </wgt>
<wgt id='116'> +6.0015860e+02 </wgt>
<wgt id='117'> +5.3288807e+02 </wgt>
<wgt id='118'> +4.9758388e+02 </wgt>
<wgt id='119'> +5.3824957e+02 </wgt>
<wgt id='120'> +4.8045242e+02 </wgt>
<wgt id='121'> +4.4770619e+02 </wgt>
<wgt id='122'> +4.6177722e+02 </wgt>
<wgt id='123'> +4.3043627e+02 </wgt>
<wgt id='124'> +5.6665781e+02 </wgt>
<wgt id='125'> +7.8901039e+02 </wgt>
<wgt id='126'> +4.6901676e+02 </wgt>
<wgt id='127'> +4.4579740e+02 </wgt>
<wgt id='128'> +5.0622592e+02 </wgt>
<wgt id='129'> +4.5788333e+02 </wgt>
<wgt id='130'> +4.5909428e+02 </wgt>
<wgt id='131'> +4.1437471e+02 </wgt>
<wgt id='132'> +5.3244938e+02 </wgt>
<wgt id='133'> +5.6649256e+02 </wgt>
<wgt id='134'> +5.9768236e+02 </wgt>
<wgt id='135'> +4.6942155e+02 </wgt>
<wgt id='136'> +6.4647322e+02 </wgt>
<wgt id='137'> +6.2400855e+02 </wgt>
<wgt id='138'> +5.9759675e+02 </wgt>
<wgt id='139'> +5.3921948e+02 </wgt>
<wgt id='140'> +4.7246309e+02 </wgt>
<wgt id='141'> +7.1852197e+02 </wgt>
<wgt id='142'> +1.9943868e+02 </wgt>
<wgt id='143'> +5.1715681e+02 </wgt>
<wgt id='144'> +4.1969429e+02 </wgt>
<wgt id='145'> +4.4220011e+02 </wgt>
</rwgt>
</event>
<event>
 4      1 +5.0481800e+02 2.29054800e+02 7.54677100e-03 1.12730700e-01
       21 -1    0    0  501  502 +0.0000000000e+00 +0.0000000000e+00 +2.4192202226e+02 2.4192202226e+02 0.0000000000e+00 0.0000e+00 -1.0000e+00
       21 -1    0    0  502  503 -0.0000000000e+00 -0.0000000000e+00 -5.2363624345e+02 5.2363624345e+02 0.0000000000e+00 0.0000e+00 1.0000e+00
        6  1    1    2  501    0 -1.2482363551e+02 +8.3403570736e+01 +1.5212143834e+02 2.7496732096e+02 1.7300000000e+02 0.0000e+00 -1.0000e+00
       -6  1    1    2    0  503 +1.2482363551e+02 -8.3403570736e+01 -4.3383565953e+02 4.9059094475e+02 1.7300000000e+02 0.0000e+00 1.0000e+00
<mgrwt>
<rscale>  2 0.22905479E+03</rscale>
<asrwt>0</asrwt>
<pdfrwt beam="1">  1       21 0.37218773E-01 0.22905479E+03</pdfrwt>
<pdfrwt beam="2">  1       21 0.80559421E-01 0.22905479E+03</pdfrwt>
<totfact> 0.91992427E+03</totfact>
</mgrwt>
<rwgt>
<wgt id='1'> +6.6975377e+02 </wgt>
<wgt id='2'> +5.5978616e+02 </wgt>
<wgt id='3'> +5.0481800e+02 </wgt>
<wgt id='4'> +6.6975377e+02 </wgt>
<wgt id='5'> +4.2581725e+02 </wgt>
<wgt id='6'> +6.1364840e+02 </wgt>
<wgt id='7'> +5.0837067e+02 </wgt>
<wgt id='8'> +4.5855001e+02 </wgt>
<wgt id='9'> +6.1364841e+02 </wgt>
<wgt id='10'> +3.8749994e+02 </wgt>
<wgt id='11'> +5.5740579e+02 </wgt>
<wgt id='12'> +4.6261158e+02 </wgt>
<wgt id='13'> +4.1774913e+02 </wgt>
<wgt id='14'> +5.5740580e+02 </wgt>
<wgt id='15'> +3.5372696e+02 </wgt>
<wgt id='16'> +5.5097309e+02 </wgt>
<wgt id='17'> +4.7005972e+02 </wgt>
<wgt id='18'> +4.2655780e+02 </wgt>
<wgt id='19'> +5.5097309e+02 </wgt>
<wgt id='20'> +3.6289819e+02 </wgt>
<wgt id='21'> +4.2688547e+02 </wgt>
<wgt id='22'> +3.8746257e+02 </wgt>
<wgt id='23'> +5.0481800e+02 </wgt>
<wgt id='24'> +3.3024267e+02 </wgt>
<wgt id='25'> +4.5855000e+02 </wgt>
<wgt id='26'> +3.8846096e+02 </wgt>
<wgt id='27'> +3.5298691e+02 </wgt>
<wgt id='28'> +4.5855001e+02 </wgt>
<wgt id='29'> +3.0146001e+02 </wgt>
<wgt id='30'> +4.6555762e+02 </wgt>
<wgt id='31'> +4.0055455e+02 </wgt>
<wgt id='32'> +3.6517615e+02 </wgt>
<wgt id='33'> +4.6555763e+02 </wgt>
<wgt id='34'> +3.1295936e+02 </wgt>
<wgt id='35'> +4.2655780e+02 </wgt>
<wgt id='36'> +3.6376423e+02 </wgt>
<wgt id='37'> +3.3170672e+02 </wgt>
<wgt id='38'> +4.2655780e+02 </wgt>
<wgt id='39'> +2.8479760e+02 </wgt>
<wgt id='40'> +3.8746257e+02 </wgt>
<wgt id='41'> +3.3102135e+02 </wgt>
<wgt id='42'> +3.0219211e+02 </wgt>
<wgt id='43'> +3.8746257e+02 </wgt>
<wgt id='44'> +2.5997576e+02 </wgt>
<wgt id='45'> +5.0481800e+02 </wgt>
<wgt id='46'> +5.1868624e+02 </wgt>
<wgt id='47'> +5.2829071e+02 </wgt>
<wgt id='48'> +5.1359537e+02 </wgt>
<wgt id='49'> +4.9964583e+02 </wgt>
<wgt id='50'> +6.2457862e+02 </wgt>
<wgt id='51'> +4.9355105e+02 </wgt>
<wgt id='52'> +5.0448472e+02 </wgt>
<wgt id='53'> +4.9924428e+02 </wgt>
<wgt id='54'> +5.1054405e+02 </wgt>
<wgt id='55'> +4.5913655e+02 </wgt>
<wgt id='56'> +4.5496219e+02 </wgt>
<wgt id='57'> +4.9731945e+02 </wgt>
<wgt id='58'> +4.9306588e+02 </wgt>
<wgt id='59'> +5.1791058e+02 </wgt>
<wgt id='60'> +4.9985751e+02 </wgt>
<wgt id='61'> +4.4969931e+02 </wgt>
<wgt id='62'> +4.9826523e+02 </wgt>
<wgt id='63'> +5.0612472e+02 </wgt>
<wgt id='64'> +4.8968918e+02 </wgt>
<wgt id='65'> +5.8319547e+02 </wgt>
<wgt id='66'> +4.9590028e+02 </wgt>
<wgt id='67'> +5.0865703e+02 </wgt>
<wgt id='68'> +5.6069890e+02 </wgt>
<wgt id='69'> +5.0984062e+02 </wgt>
<wgt id='70'> +4.9538695e+02 </wgt>
<wgt id='71'> +5.1175713e+02 </wgt>
<wgt id='72'> +4.7089238e+02 </wgt>
<wgt id='73'> +4.8891307e+02 </wgt>
<wgt id='74'> +5.3706302e+02 </wgt>
<wgt id='75'> +5.1982019e+02 </wgt>
<wgt id='76'> +4.9076088e+02 </wgt>
<wgt id='77'> +4.9466869e+02 </wgt>
<wgt id='78'> +4.8508530e+02 </wgt>
<wgt id='79'> +4.9569319e+02 </wgt>
<wgt id='80'> +4.9176449e+02 </wgt>
<wgt id='81'> +4.9156134e+02 </wgt>
<wgt id='82'> +5.0417734e+02 </wgt>
<wgt id='83'> +5.1909948e+02 </wgt>
<wgt id='84'> +5.5610111e+02 </wgt>
<wgt id='85'> +5.2446648e+02 </wgt>
<wgt id='86'> +5.1021056e+02 </wgt>
<wgt id='87'> +5.0953224e+02 </wgt>
<wgt id='88'> +5.1399997e+02 </wgt>
<wgt id='89'> +5.1811090e+02 </wgt>
<wgt id='90'> +5.1507146e+02 </wgt>
<wgt id='91'> +5.2606939e+02 </wgt>
<wgt id='92'> +4.4482191e+02 </wgt>
<wgt id='93'> +5.0382493e+02 </wgt>
<wgt id='94'> +4.9010828e+02 </wgt>
<wgt id='95'> +4.8570574e+02 </wgt>
<wgt id='96'> +5.5743943e+02 </wgt>
<wgt id='97'> +5.0122871e+02 </wgt>
<wgt id='98'> +4.8853544e+02 </wgt>
<wgt id='99'> +4.7998092e+02 </wgt>
<wgt id='100'> +4.7115328e+02 </wgt>
<wgt id='101'> +5.6228522e+02 </wgt>
<wgt id='102'> +5.1894456e+02 </wgt>
<wgt id='103'> +5.5474141e+02 </wgt>
<wgt id='104'> +5.1225519e+02 </wgt>
<wgt id='105'> +5.1709559e+02 </wgt>
<wgt id='106'> +4.4695318e+02 </wgt>
<wgt id='107'> +4.7577673e+02 </wgt>
<wgt id='108'> +4.3376802e+02 </wgt>
<wgt id='109'> +4.6492913e+02 </wgt>
<wgt id='110'> +4.9941393e+02 </wgt>
<wgt id='111'> +4.8565310e+02 </wgt>
<wgt id='112'> +4.7154642e+02 </wgt>
<wgt id='113'> +4.5753788e+02 </wgt>
<wgt id='114'> +4.8524526e+02 </wgt>
<wgt id='115'> +4.7943589e+02 </wgt>
<wgt id='116'> +5.2674264e+02 </wgt>
<wgt id='117'> +5.0123107e+02 </wgt>
<wgt id='118'> +5.3552715e+02 </wgt>
<wgt id='119'> +4.8374966e+02 </wgt>
<wgt id='120'> +4.8999187e+02 </wgt>
<wgt id='121'> +4.8727758e+02 </wgt>
<wgt id='122'> +4.9682702e+02 </wgt>
<wgt id='123'> +5.1376430e+02 </wgt>
<wgt id='124'> +5.6487643e+02 </wgt>
<wgt id='125'> +5.6683008e+02 </wgt>
<wgt id='126'> +5.2883428e+02 </wgt>
<wgt id='127'> +5.2383818e+02 </wgt>
<wgt id='128'> +4.5593156e+02 </wgt>
<wgt id='129'> +5.7541729e+02 </wgt>
<wgt id='130'> +5.0759141e+02 </wgt>
<wgt id='131'> +5.3372360e+02 </wgt>
<wgt id='132'> +5.2171981e+02 </wgt>
<wgt id='133'> +5.1926007e+02 </wgt>
<wgt id='134'> +4.8297003e+02 </wgt>
<wgt id='135'> +5.1507327e+02 </wgt>
<wgt id='136'> +5.0727812e+02 </wgt>
<wgt id='137'> +4.8298130e+02 </wgt>
<wgt id='138'> +4.7714686e+02 </wgt>
<wgt id='139'> +5.2232762e+02 </wgt>
<wgt id='140'> +5.2431664e+02 </wgt>
<wgt id='141'> +5.1202707e+02 </wgt>
<wgt id='142'> +4.7917605e+02 </wgt>
<wgt id='143'> +5.1128403e+02 </wgt>
<wgt id='144'> +4.9220938e+02 </wgt>
<wgt id='145'> +5.0402991e+02 </wgt>
</rwgt>
</event>
<event>
 4      1 +5.0481800e+02 2.32756100e+02 7.54677100e-03 1.12471500e-01
       21 -1    0    0  503  502 +0.0000000000e+00 +0.0000000000e+00 +1.4960824217e+02 1.4960824217e+02 0.0000000000e+00 0.0000e+00 -1.0000e+00
       21 -1    0    0  501  503 -0.0000000000e+00 -0.0000000000e+00 -5.5593120851e+02 5.5593120851e+02 0.0000000000e+00 0.0000e+00 1.0000e+00
        6  1    1    2  501    0 -1.4895541571e+02 -4.5372733212e+01 -4.1145499158e+02 4.7272678249e+02 1.7300000000e+02 0.0000e+00 1.0000e+00
       -6  1    1    2    0  502 +1.4895541571e+02 +4.5372733212e+01 +5.1320252408e+00 2.3281266819e+02 1.7300000000e+02 0.0000e+00 -1.0000e+00
<mgrwt>
<rscale>  2 0.23275610E+03</rscale>
<asrwt>0</asrwt>
<pdfrwt beam="1">  1       21 0.23016652E-01 0.23275610E+03</pdfrwt>
<pdfrwt beam="2">  1       21 0.85527880E-01 0.23275610E+03</pdfrwt>
<totfact> 0.20461738E+04</totfact>
</mgrwt>
<rwgt>
<wgt id='1'> +6.6054858e+02 </wgt>
<wgt id='2'> +5.3460634e+02 </wgt>
<wgt id='3'> +5.0481800e+02 </wgt>
<wgt id='4'> +6.6054858e+02 </wgt>
<wgt id='5'> +4.6613937e+02 </wgt>
<wgt id='6'> +6.1312806e+02 </wgt>
<wgt id='7'> +4.9120192e+02 </wgt>
<wgt id='8'> +4.6402537e+02 </wgt>
<wgt id='9'> +6.1312806e+02 </wgt>
<wgt id='10'> +4.2866633e+02 </wgt>
<wgt id='11'> +5.6358326e+02 </wgt>
<wgt id='12'> +4.5208079e+02 </wgt>
<wgt id='13'> +4.2724646e+02 </wgt>
<wgt id='14'> +5.6358326e+02 </wgt>
<wgt id='15'> +3.9493624e+02 </wgt>
<wgt id='16'> +5.4386160e+02 </wgt>
<wgt id='17'> +4.5051766e+02 </wgt>
<wgt id='18'> +4.2669483e+02 </wgt>
<wgt id='19'> +5.4386161e+02 </wgt>
<wgt id='20'> +3.9568571e+02 </wgt>
<wgt id='21'> +4.1394036e+02 </wgt>
<wgt id='22'> +3.9221507e+02 </wgt>
<wgt id='23'> +5.0481800e+02 </wgt>
<wgt id='24'> +3.6387645e+02 </wgt>
<wgt id='25'> +4.6402537e+02 </wgt>
<wgt id='26'> +3.8097262e+02 </wgt>
<wgt id='27'> +3.6112789e+02 </wgt>
<wgt id='28'> +4.6402537e+02 </wgt>
<wgt id='29'> +3.3524443e+02 </wgt>
<wgt id='30'> +4.5969624e+02 </wgt>
<wgt id='31'> +3.8476429e+02 </wgt>
<wgt id='32'> +3.6539518e+02 </wgt>
<wgt id='33'> +4.5969624e+02 </wgt>
<wgt id='34'> +3.4007463e+02 </wgt>
<wgt id='35'> +4.2669483e+02 </wgt>
<wgt id='36'> +3.5352547e+02 </wgt>
<wgt id='37'> +3.3586884e+02 </wgt>
<wgt id='38'> +4.2669483e+02 </wgt>
<wgt id='39'> +3.1273596e+02 </wgt>
<wgt id='40'> +3.9221507e+02 </wgt>
<wgt id='41'> +3.2536940e+02 </wgt>
<wgt id='42'> +3.0924769e+02 </wgt>
<wgt id='43'> +3.9221507e+02 </wgt>
<wgt id='44'> +2.8812798e+02 </wgt>
<wgt id='45'> +5.0481800e+02 </wgt>
<wgt id='46'> +5.1519370e+02 </wgt>
<wgt id='47'> +5.2458133e+02 </wgt>
<wgt id='48'> +5.1051795e+02 </wgt>
<wgt id='49'> +4.9861735e+02 </wgt>
<wgt id='50'> +6.0960313e+02 </wgt>
<wgt id='51'> +4.9308511e+02 </wgt>
<wgt id='52'> +5.0327329e+02 </wgt>
<wgt id='53'> +5.0129715e+02 </wgt>
<wgt id='54'> +5.1139425e+02 </wgt>
<wgt id='55'> +4.6605471e+02 </wgt>
<wgt id='56'> +4.5997084e+02 </wgt>
<wgt id='57'> +5.0038491e+02 </wgt>
<wgt id='58'> +4.9523352e+02 </wgt>
<wgt id='59'> +5.1661484e+02 </wgt>
<wgt id='60'> +4.9804739e+02 </wgt>
<wgt id='61'> +4.5258912e+02 </wgt>
<wgt id='62'> +4.9665047e+02 </wgt>
<wgt id='63'> +5.0655193e+02 </wgt>
<wgt id='64'> +4.9369952e+02 </wgt>
<wgt id='65'> +5.7614498e+02 </wgt>
<wgt id='66'> +4.9577466e+02 </wgt>
<wgt id='67'> +5.0841944e+02 </wgt>
<wgt id='68'> +5.5631308e+02 </wgt>
<wgt id='69'> +5.0570171e+02 </wgt>
<wgt id='70'> +4.9722050e+02 </wgt>
<wgt id='71'> +5.1093630e+02 </wgt>
<wgt id='72'> +4.7938138e+02 </wgt>
<wgt id='73'> +4.8973962e+02 </wgt>
<wgt id='74'> +5.3334043e+02 </wgt>
<wgt id='75'> +5.1838580e+02 </wgt>
<wgt id='76'> +4.9401593e+02 </wgt>
<wgt id='77'> +4.9301165e+02 </wgt>
<wgt id='78'> +4.8696924e+02 </wgt>
<wgt id='79'> +4.9542102e+02 </wgt>
<wgt id='80'> +4.9219687e+02 </wgt>
<wgt id='81'> +4.9404301e+02 </wgt>
<wgt id='82'> +5.0358158e+02 </wgt>
<wgt id='83'> +5.1534458e+02 </wgt>
<wgt id='84'> +5.4994829e+02 </wgt>
<wgt id='85'> +5.2060686e+02 </wgt>
<wgt id='86'> +5.0802571e+02 </wgt>
<wgt id='87'> +5.0802723e+02 </wgt>
<wgt id='88'> +5.1127497e+02 </wgt>
<wgt id='89'> +5.1371688e+02 </wgt>
<wgt id='90'> +5.1333643e+02 </wgt>
<wgt id='91'> +5.2327111e+02 </wgt>
<wgt id='92'> +4.5461408e+02 </wgt>
<wgt id='93'> +5.0200370e+02 </wgt>
<wgt id='94'> +4.9196570e+02 </wgt>
<wgt id='95'> +4.9103400e+02 </wgt>
<wgt id='96'> +5.4853208e+02 </wgt>
<wgt id='97'> +5.0181397e+02 </wgt>
<wgt id='98'> +4.9027883e+02 </wgt>
<wgt id='99'> +4.8014088e+02 </wgt>
<wgt id='100'> +4.7444613e+02 </wgt>
<wgt id='101'> +5.5491601e+02 </wgt>
<wgt id='102'> +5.1477332e+02 </wgt>
<wgt id='103'> +5.4792531e+02 </wgt>
<wgt id='104'> +5.1054406e+02 </wgt>
<wgt id='105'> +5.1978625e+02 </wgt>
<wgt id='106'> +4.5586867e+02 </wgt>
<wgt id='107'> +4.8178507e+02 </wgt>
<wgt id='108'> +4.4228398e+02 </wgt>
<wgt id='109'> +4.7112601e+02 </wgt>
<wgt id='110'> +4.9996962e+02 </wgt>
<wgt id='111'> +4.8904677e+02 </wgt>
<wgt id='112'> +4.7670415e+02 </wgt>
<wgt id='113'> +4.6373321e+02 </wgt>
<wgt id='114'> +4.9269300e+02 </wgt>
<wgt id='115'> +4.8422625e+02 </wgt>
<wgt id='116'> +5.2164536e+02 </wgt>
<wgt id='117'> +5.0235884e+02 </wgt>
<wgt id='118'> +5.2977918e+02 </wgt>
<wgt id='119'> +4.8847213e+02 </wgt>
<wgt id='120'> +4.9415254e+02 </wgt>
<wgt id='121'> +4.9101488e+02 </wgt>
<wgt id='122'> +4.9817002e+02 </wgt>
<wgt id='123'> +5.1099074e+02 </wgt>
<wgt id='124'> +5.5781605e+02 </wgt>
<wgt id='125'> +5.6161676e+02 </wgt>
<wgt id='126'> +5.2430453e+02 </wgt>
<wgt id='127'> +5.2012707e+02 </wgt>
<wgt id='128'> +4.6014324e+02 </wgt>
<wgt id='129'> +5.6971689e+02 </wgt>
<wgt id='130'> +5.0467242e+02 </wgt>
<wgt id='131'> +5.3058791e+02 </wgt>
<wgt id='132'> +5.2096129e+02 </wgt>
<wgt id='133'> +5.1638248e+02 </wgt>
<wgt id='134'> +4.8527350e+02 </wgt>
<wgt id='135'> +5.1356559e+02 </wgt>
<wgt id='136'> +5.0949268e+02 </wgt>
<wgt id='137'> +4.8302088e+02 </wgt>
<wgt id='138'> +4.7419603e+02 </wgt>
<wgt id='139'> +5.1982551e+02 </wgt>
<wgt id='140'> +5.2400542e+02 </wgt>
<wgt id='141'> +5.1208917e+02 </wgt>
<wgt id='142'> +4.8032502e+02 </wgt>
<wgt id='143'> +5.1059532e+02 </wgt>
<wgt id='144'> +4.9435782e+02 </wgt>
<wgt id='145'> +5.0287667e+02 </wgt>
</rwgt>
</event>
<event>
 4      1 +5.0481800e+02 2.16797900e+02 7.54677100e-03 1.13629300e-01
       21 -1    0    0  503  502 +0.0000000000e+00 +0.0000000000e+00 +1.8979163133e+02 1.8979163133e+02 0.0000000000e+00 0.0000e+00 -1.0000e+00
       21 -1    0    0  501  503 -0.0000000000e+00 -0.0000000000e+00 -3.8979788554e+02 3.8979788554e+02 0.0000000000e+00 0.0000e+00 -1.0000e+00
        6  1    1    2  501    0 -5.1941554308e+01 +1.1989330764e+02 -2.7500615140e+02 3.5018525610e+02 1.7300000000e+02 0.0000e+00 -1.0000e+00
       -6  1    1    2    0  502 +5.1941554308e+01 -1.1989330764e+02 +7.4999897195e+01 2.2940426077e+02 1.7300000000e+02 0.0000e+00 -1.0000e+00
<mgrwt>
<rscale>  2 0.21679790E+03</rscale>
<asrwt>0</asrwt>
<pdfrwt beam="1">  1       21 0.29198713E-01 0.21679790E+03</pdfrwt>
<pdfrwt beam="2">  1       21 0.59968904E-01 0.21679790E+03</pdfrwt>
<totfact> 0.28757749E+04</totfact>
</mgrwt>
<rwgt>
<wgt id='1'> +6.5696667e+02 </wgt>
<wgt id='2'> +5.4706703e+02 </wgt>
<wgt id='3'> +5.0481800e+02 </wgt>
<wgt id='4'> +6.5696666e+02 </wgt>
<wgt id='5'> +4.6479838e+02 </wgt>
<wgt id='6'> +6.1550797e+02 </wgt>
<wgt id='7'> +5.0652710e+02 </wgt>
<wgt id='8'> +4.6701930e+02 </wgt>
<wgt id='9'> +6.1550796e+02 </wgt>
<wgt id='10'> +4.3016054e+02 </wgt>
<wgt id='11'> +5.6942126e+02 </wgt>
<wgt id='12'> +4.6896799e+02 </wgt>
<wgt id='13'> +4.3256940e+02 </wgt>
<wgt id='14'> +5.6942126e+02 </wgt>
<wgt id='15'> +3.9862519e+02 </wgt>
<wgt id='16'> +5.3882097e+02 </wgt>
<wgt id='17'> +4.5918949e+02 </wgt>
<wgt id='18'> +4.2611521e+02 </wgt>
<wgt id='19'> +5.3882097e+02 </wgt>
<wgt id='20'> +3.9409440e+02 </wgt>
<wgt id='21'> +4.2516165e+02 </wgt>
<wgt id='22'> +3.9420946e+02 </wgt>
<wgt id='23'> +5.0481800e+02 </wgt>
<wgt id='24'> +3.6472558e+02 </wgt>
<wgt id='25'> +4.6701930e+02 </wgt>
<wgt id='26'> +3.9363581e+02 </wgt>
<wgt id='27'> +3.6513040e+02 </wgt>
<wgt id='28'> +4.6701930e+02 </wgt>
<wgt id='29'> +3.3798732e+02 </wgt>
<wgt id='30'> +4.5481701e+02 </wgt>
<wgt id='31'> +3.9120242e+02 </wgt>
<wgt id='32'> +3.6444738e+02 </wgt>
<wgt id='33'> +4.5481701e+02 </wgt>
<wgt id='34'> +3.3837678e+02 </wgt>
<wgt id='35'> +4.2611521e+02 </wgt>
<wgt id='36'> +3.6221271e+02 </wgt>
<wgt id='37'> +3.3715906e+02 </wgt>
<wgt id='38'> +4.2611521e+02 </wgt>
<wgt id='39'> +3.1316016e+02 </wgt>
<wgt id='40'> +3.9420946e+02 </wgt>
<wgt id='41'> +3.3535454e+02 </wgt>
<wgt id='42'> +3.1228836e+02 </wgt>
<wgt id='43'> +3.9420946e+02 </wgt>
<wgt id='44'> +2.9020219e+02 </wgt>
<wgt id='45'> +5.0481800e+02 </wgt>
<wgt id='46'> +5.1049990e+02 </wgt>
<wgt id='47'> +5.2557164e+02 </wgt>
<wgt id='48'> +5.0958340e+02 </wgt>
<wgt id='49'> +5.0274358e+02 </wgt>
<wgt id='50'> +6.0441644e+02 </wgt>
<wgt id='51'> +4.9480792e+02 </wgt>
<wgt id='52'> +5.0323335e+02 </wgt>
<wgt id='53'> +5.0612450e+02 </wgt>
<wgt id='54'> +5.0826001e+02 </wgt>
<wgt id='55'> +4.5214552e+02 </wgt>
<wgt id='56'> +4.6335052e+02 </wgt>
<wgt id='57'> +4.9248932e+02 </wgt>
<wgt id='58'> +5.0246455e+02 </wgt>
<wgt id='59'> +5.0462516e+02 </wgt>
<wgt id='60'> +4.9014796e+02 </wgt>
<wgt id='61'> +4.7747413e+02 </wgt>
<wgt id='62'> +4.9881097e+02 </wgt>
<wgt id='63'> +5.0535049e+02 </wgt>
<wgt id='64'> +4.9525037e+02 </wgt>
<wgt id='65'> +5.9291213e+02 </wgt>
<wgt id='66'> +4.9399123e+02 </wgt>
<wgt id='67'> +5.0919302e+02 </wgt>
<wgt id='68'> +5.4821339e+02 </wgt>
<wgt id='69'> +4.9936408e+02 </wgt>
<wgt id='70'> +4.9552708e+02 </wgt>
<wgt id='71'> +5.1379601e+02 </wgt>
<wgt id='72'> +4.8155182e+02 </wgt>
<wgt id='73'> +4.9490355e+02 </wgt>
<wgt id='74'> +5.2642085e+02 </wgt>
<wgt id='75'> +5.1753533e+02 </wgt>
<wgt id='76'> +4.8944774e+02 </wgt>
<wgt id='77'> +4.8977664e+02 </wgt>
<wgt id='78'> +4.9779429e+02 </wgt>
<wgt id='79'> +4.8820861e+02 </wgt>
<wgt id='80'> +4.9761966e+02 </wgt>
<wgt id='81'> +4.9347572e+02 </wgt>
<wgt id='82'> +5.1381413e+02 </wgt>
<wgt id='83'> +5.1758099e+02 </wgt>
<wgt id='84'> +5.5658361e+02 </wgt>
<wgt id='85'> +5.2997441e+02 </wgt>
<wgt id='86'> +5.0504316e+02 </wgt>
<wgt id='87'> +5.0684563e+02 </wgt>
<wgt id='88'> +5.1453958e+02 </wgt>
<wgt id='89'> +5.1855828e+02 </wgt>
<wgt id='90'> +5.1261533e+02 </wgt>
<wgt id='91'> +5.3418933e+02 </wgt>
<wgt id='92'> +4.5515490e+02 </wgt>
<wgt id='93'> +4.9928084e+02 </wgt>
<wgt id='94'> +4.9761424e+02 </wgt>
<wgt id='95'> +4.8321650e+02 </wgt>
<wgt id='96'> +5.5180755e+02 </wgt>
<wgt id='97'> +5.0864370e+02 </wgt>
<wgt id='98'> +4.8355566e+02 </wgt>
<wgt id='99'> +4.8687502e+02 </wgt>
<wgt id='100'> +4.8994327e+02 </wgt>
<wgt id='101'> +5.4256519e+02 </wgt>
<wgt id='102'> +5.0087684e+02 </wgt>
<wgt id='103'> +5.5216561e+02 </wgt>
<wgt id='104'> +5.0712349e+02 </wgt>
<wgt id='105'> +5.2123030e+02 </wgt>
<wgt id='106'> +4.5597434e+02 </wgt>
<wgt id='107'> +4.8901360e+02 </wgt>
<wgt id='108'> +4.4378352e+02 </wgt>
<wgt id='109'> +4.6934795e+02 </wgt>
<wgt id='110'> +5.0352455e+02 </wgt>
<wgt id='111'> +4.8868927e+02 </wgt>
<wgt id='112'> +4.7671539e+02 </wgt>
<wgt id='113'> +4.5980404e+02 </wgt>
<wgt id='114'> +4.9493922e+02 </wgt>
<wgt id='115'> +4.9518835e+02 </wgt>
<wgt id='116'> +5.1309804e+02 </wgt>
<wgt id='117'> +5.0763155e+02 </wgt>
<wgt id='118'> +5.2502427e+02 </wgt>
<wgt id='119'> +4.8335626e+02 </wgt>
<wgt id='120'> +4.9679722e+02 </wgt>
<wgt id='121'> +4.8838456e+02 </wgt>
<wgt id='122'> +4.9740371e+02 </wgt>
<wgt id='123'> +5.1290744e+02 </wgt>
<wgt id='124'> +5.4919968e+02 </wgt>
<wgt id='125'> +5.5001812e+02 </wgt>
<wgt id='126'> +5.2698570e+02 </wgt>
<wgt id='127'> +5.2214182e+02 </wgt>
<wgt id='128'> +4.6330450e+02 </wgt>
<wgt id='129'> +5.7412385e+02 </wgt>
<wgt id='130'> +5.0939666e+02 </wgt>
<wgt id='131'> +5.3920363e+02 </wgt>
<wgt id='132'> +5.0705634e+02 </wgt>
<wgt id='133'> +5.0803119e+02 </wgt>
<wgt id='134'> +4.7706130e+02 </wgt>
<wgt id='135'> +5.1726805e+02 </wgt>
<wgt id='136'> +4.9104405e+02 </wgt>
<wgt id='137'> +4.7804222e+02 </wgt>
<wgt id='138'> +4.6608772e+02 </wgt>
<wgt id='139'> +5.1772854e+02 </wgt>
<wgt id='140'> +5.3236194e+02 </wgt>
<wgt id='141'> +5.0659431e+02 </wgt>
<wgt id='142'> +4.9848947e+02 </wgt>
<wgt id='143'> +5.0429988e+02 </wgt>
<wgt id='144'> +4.9976608e+02 </wgt>
<wgt id='145'> +5.0579339e+02 </wgt>
</rwgt>
</event>
<event>
 4      1 +5.0481800e+02 1.95367600e+02 7.54677100e-03 1.15370700e-01
       21 -1    0    0  503  502 +0.0000000000e+00 +0.0000000000e+00 +9.4298684090e+02 9.4298684090e+02 0.0000000000e+00 0.0000e+00 -1.0000e+00
       21 -1    0    0  501  503 -0.0000000000e+00 -0.0000000000e+00 -6.1317671976e+01 6.1317671976e+01 0.0000000000e+00 0.0000e+00 1.0000e+00
        6  1    1    2  501    0 +8.7075784963e+01 -2.5638158815e+01 +1.4807780172e+02 2.4514392278e+02 1.7300000000e+02 0.0000e+00 1.0000e+00
       -6  1    1    2    0  502 -8.7075784963e+01 +2.5638158815e+01 +7.3359136721e+02 7.5916059010e+02 1.7300000000e+02 0.0000e+00 -1.0000e+00
<mgrwt>
<rscale>  2 0.19536762E+03</rscale>
<asrwt>0</asrwt>
<pdfrwt beam="1">  1       21 0.14507489E+00 0.19536762E+03</pdfrwt>
<pdfrwt beam="2">  1       21 0.94334887E-02 0.19536762E+03</pdfrwt>
<totfact> 0.29289604E+04</totfact>
</mgrwt>
<rwgt>
<wgt id='1'> +6.6488291e+02 </wgt>
<wgt id='2'> +6.3180897e+02 </wgt>
<wgt id='3'> +5.0481800e+02 </wgt>
<wgt id='4'> +6.6488290e+02 </wgt>
<wgt id='5'> +4.6639185e+02 </wgt>
<wgt id='6'> +6.1904437e+02 </wgt>
<wgt id='7'> +5.8612648e+02 </wgt>
<wgt id='8'> +4.6271972e+02 </wgt>
<wgt id='9'> +6.1904437e+02 </wgt>
<wgt id='10'> +4.2763810e+02 </wgt>
<wgt id='11'> +5.6742041e+02 </wgt>
<wgt id='12'> +5.3732630e+02 </wgt>
<wgt id='13'> +4.2467635e+02 </wgt>
<wgt id='14'> +5.6742040e+02 </wgt>
<wgt id='15'> +3.9268411e+02 </wgt>
<wgt id='16'> +5.4219839e+02 </wgt>
<wgt id='17'> +5.1878761e+02 </wgt>
<wgt id='18'> +4.2516827e+02 </wgt>
<wgt id='19'> +5.4219839e+02 </wgt>
<wgt id='20'> +3.9447753e+02 </wgt>
<wgt id='21'> +4.8127705e+02 </wgt>
<wgt id='22'> +3.8971222e+02 </wgt>
<wgt id='23'> +5.0481800e+02 </wgt>
<wgt id='24'> +3.6169934e+02 </wgt>
<wgt id='25'> +4.6271972e+02 </wgt>
<wgt id='26'> +4.4120650e+02 </wgt>
<wgt id='27'> +3.5767130e+02 </wgt>
<wgt id='28'> +4.6271972e+02 </wgt>
<wgt id='29'> +3.3213500e+02 </wgt>
<wgt id='30'> +4.5665082e+02 </wgt>
<wgt id='31'> +4.3807620e+02 </wgt>
<wgt id='32'> +3.6296086e+02 </wgt>
<wgt id='33'> +4.5665082e+02 </wgt>
<wgt id='34'> +3.3799695e+02 </wgt>
<wgt id='35'> +4.2516827e+02 </wgt>
<wgt id='36'> +4.0640142e+02 </wgt>
<wgt id='37'> +3.3269247e+02 </wgt>
<wgt id='38'> +4.2516827e+02 </wgt>
<wgt id='39'> +3.0991187e+02 </wgt>
<wgt id='40'> +3.8971222e+02 </wgt>
<wgt id='41'> +3.7256492e+02 </wgt>
<wgt id='42'> +3.0533954e+02 </wgt>
<wgt id='43'> +3.8971222e+02 </wgt>
<wgt id='44'> +2.8458050e+02 </wgt>
<wgt id='45'> +5.0481800e+02 </wgt>
<wgt id='46'> +5.1869150e+02 </wgt>
<wgt id='47'> +5.1766273e+02 </wgt>
<wgt id='48'> +5.0586733e+02 </wgt>
<wgt id='49'> +4.8295337e+02 </wgt>
<wgt id='50'> +5.9736016e+02 </wgt>
<wgt id='51'> +4.8443053e+02 </wgt>
<wgt id='52'> +4.9377456e+02 </wgt>
<wgt id='53'> +4.9831340e+02 </wgt>
<wgt id='54'> +5.2434130e+02 </wgt>
<wgt id='55'> +5.1722286e+02 </wgt>
<wgt id='56'> +4.6843020e+02 </wgt>
<wgt id='57'> +5.2324386e+02 </wgt>
<wgt id='58'> +4.7793544e+02 </wgt>
<wgt id='59'> +5.3947917e+02 </wgt>
<wgt id='60'> +5.0837809e+02 </wgt>
<wgt id='61'> +4.4593249e+02 </wgt>
<wgt id='62'> +4.8313638e+02 </wgt>
<wgt id='63'> +5.1733993e+02 </wgt>
<wgt id='64'> +5.0045159e+02 </wgt>
<wgt id='65'> +5.1634476e+02 </wgt>
<wgt id='66'> +5.0156983e+02 </wgt>
<wgt id='67'> +5.0691187e+02 </wgt>
<wgt id='68'> +5.7688121e+02 </wgt>
<wgt id='69'> +5.1903239e+02 </wgt>
<wgt id='70'> +5.1306208e+02 </wgt>
<wgt id='71'> +4.9419787e+02 </wgt>
<wgt id='72'> +4.8011527e+02 </wgt>
<wgt id='73'> +4.7399536e+02 </wgt>
<wgt id='74'> +5.5075167e+02 </wgt>
<wgt id='75'> +5.2552273e+02 </wgt>
<wgt id='76'> +5.0962956e+02 </wgt>
<wgt id='77'> +4.9078553e+02 </wgt>
<wgt id='78'> +4.6061317e+02 </wgt>
<wgt id='79'> +5.1611554e+02 </wgt>
<wgt id='80'> +4.7334729e+02 </wgt>
<wgt id='81'> +5.0489749e+02 </wgt>
<wgt id='82'> +4.8809007e+02 </wgt>
<wgt id='83'> +5.0294568e+02 </wgt>
<wgt id='84'> +5.1977055e+02 </wgt>
<wgt id='85'> +4.8803668e+02 </wgt>
<wgt id='86'> +5.1510892e+02 </wgt>
<wgt id='87'> +5.0543731e+02 </wgt>
<wgt id='88'> +4.9774283e+02 </wgt>
<wgt id='89'> +4.8058919e+02 </wgt>
<wgt id='90'> +4.9994641e+02 </wgt>
<wgt id='91'> +4.8370275e+02 </wgt>
<wgt id='92'> +4.6761293e+02 </wgt>
<wgt id='93'> +5.0555788e+02 </wgt>
<wgt id='94'> +4.7787772e+02 </wgt>
<wgt id='95'> +5.1735538e+02 </wgt>
<wgt id='96'> +5.3143636e+02 </wgt>
<wgt id='97'> +4.8112002e+02 </wgt>
<wgt id='98'> +5.1309333e+02 </wgt>
<wgt id='99'> +4.5568871e+02 </wgt>
<wgt id='100'> +4.3296934e+02 </wgt>
<wgt id='101'> +5.7323143e+02 </wgt>
<wgt id='102'> +5.4277815e+02 </wgt>
<wgt id='103'> +5.1836520e+02 </wgt>
<wgt id='104'> +5.2115498e+02 </wgt>
<wgt id='105'> +5.2011627e+02 </wgt>
<wgt id='106'> +4.7341303e+02 </wgt>
<wgt id='107'> +4.8024012e+02 </wgt>
<wgt id='108'> +4.5715308e+02 </wgt>
<wgt id='109'> +4.8789685e+02 </wgt>
<wgt id='110'> +4.8669878e+02 </wgt>
<wgt id='111'> +4.9288760e+02 </wgt>
<wgt id='112'> +4.9902895e+02 </wgt>
<wgt id='113'> +4.9195129e+02 </wgt>
<wgt id='114'> +5.0775839e+02 </wgt>
<wgt id='115'> +4.6833230e+02 </wgt>
<wgt id='116'> +5.3633704e+02 </wgt>
<wgt id='117'> +4.9421987e+02 </wgt>
<wgt id='118'> +5.2774740e+02 </wgt>
<wgt id='119'> +5.1872086e+02 </wgt>
<wgt id='120'> +5.0006948e+02 </wgt>
<wgt id='121'> +5.0127933e+02 </wgt>
<wgt id='122'> +4.9846531e+02 </wgt>
<wgt id='123'> +4.9769181e+02 </wgt>
<wgt id='124'> +5.6590277e+02 </wgt>
<wgt id='125'> +5.9161858e+02 </wgt>
<wgt id='126'> +5.0806459e+02 </wgt>
<wgt id='127'> +5.0366540e+02 </wgt>
<wgt id='128'> +4.6773088e+02 </wgt>
<wgt id='129'> +5.4438738e+02 </wgt>
<wgt id='130'> +4.8850074e+02 </wgt>
<wgt id='131'> +4.9868710e+02 </wgt>
<wgt id='132'> +5.4640540e+02 </wgt>
<wgt id='133'> +5.3393915e+02 </wgt>
<wgt id='134'> +5.0958572e+02 </wgt>
<wgt id='135'> +4.9880289e+02 </wgt>
<wgt id='136'> +5.5930306e+02 </wgt>
<wgt id='137'> +4.9969427e+02 </wgt>
<wgt id='138'> +4.9174266e+02 </wgt>
<wgt id='139'> +5.2052029e+02 </wgt>
<wgt id='140'> +5.0509192e+02 </wgt>
<wgt id='141'> +5.3536037e+02 </wgt>
<wgt id='142'> +4.2572992e+02 </wgt>
<wgt id='143'> +5.1940076e+02 </wgt>
<wgt id='144'> +4.7955811e+02 </wgt>
<wgt id='145'> +4.8478648e+02 </wgt>
</rwgt>
</event>
<event>
 4      1 +5.0481800e+02 2.11257400e+02 7.54677100e-03 1.14057400e-01
        2 -1    0    0  502    0 +0.0000000000e+00 +0.0000000000e+00 +1.5052908295e+03 1.5052908295e+03 0.0000000000e+00 0.0000e+00 1.0000e+00
       -2 -1    0    0    0  501 -0.0000000000e+00 -0.0000000000e+00 -3.0327171286e+01 3.0327171286e+01 0.0000000000e+00 0.0000e+00 -1.0000e+00
        6  1    1    2  502    0 -1.2106937442e+02 +6.5494850708e+00 +6.2262647368e+02 6.5749023940e+02 1.7300000000e+02 0.0000e+00 1.0000e+00
       -6  1    1    2    0  501 +1.2106937442e+02 -6.5494850708e+00 +8.5233718453e+02 8.7812776139e+02 1.7300000000e+02 0.0000e+00 -1.0000e+00
<mgrwt>
<rscale>  2 0.21125740E+03</rscale>
<asrwt>0</asrwt>
<pdfrwt beam="1">  1        2 0.23158315E+00 0.21125740E+03</pdfrwt>
<pdfrwt beam="2">  1       -2 0.46657198E-02 0.21125740E+03</pdfrwt>
<totfact> 0.29465778E+03</totfact>
</mgrwt>
<rwgt>
<wgt id='1'> +6.1223274e+02 </wgt>
<wgt id='2'> +5.8325163e+02 </wgt>
<wgt id='3'> +5.0481800e+02 </wgt>
<wgt id='4'> +6.1223274e+02 </wgt>
<wgt id='5'> +5.0339450e+02 </wgt>
<wgt id='6'> +6.1641081e+02 </wgt>
<wgt id='7'> +5.8625734e+02 </wgt>
<wgt id='8'> +5.0498996e+02 </wgt>
<wgt id='9'> +6.1641081e+02 </wgt>
<wgt id='10'> +5.0351865e+02 </wgt>
<wgt id='11'> +6.1662078e+02 </wgt>
<wgt id='12'> +5.8567610e+02 </wgt>
<wgt id='13'> +5.0263607e+02 </wgt>
<wgt id='14'> +6.1662078e+02 </wgt>
<wgt id='15'> +5.0113622e+02 </wgt>
<wgt id='16'> +5.0139632e+02 </wgt>
<wgt id='17'> +4.8193375e+02 </wgt>
<wgt id='18'> +4.2590588e+02 </wgt>
<wgt id='19'> +5.0139632e+02 </wgt>
<wgt id='20'> +4.2479709e+02 </wgt>
<wgt id='21'> +4.8441733e+02 </wgt>
<wgt id='22'> +4.2605096e+02 </wgt>
<wgt id='23'> +5.0481800e+02 </wgt>
<wgt id='24'> +4.2490186e+02 </wgt>
<wgt id='25'> +5.0498996e+02 </wgt>
<wgt id='26'> +4.8393706e+02 </wgt>
<wgt id='27'> +4.2406503e+02 </wgt>
<wgt id='28'> +5.0498996e+02 </wgt>
<wgt id='29'> +4.2289141e+02 </wgt>
<wgt id='30'> +4.2301907e+02 </wgt>
<wgt id='31'> +4.0791982e+02 </wgt>
<wgt id='32'> +3.6410210e+02 </wgt>
<wgt id='33'> +4.2301907e+02 </wgt>
<wgt id='34'> +3.6322693e+02 </wgt>
<wgt id='35'> +4.2590588e+02 </wgt>
<wgt id='36'> +4.1002198e+02 </wgt>
<wgt id='37'> +3.6422613e+02 </wgt>
<wgt id='38'> +4.2590588e+02 </wgt>
<wgt id='39'> +3.6331651e+02 </wgt>
<wgt id='40'> +4.2605096e+02 </wgt>
<wgt id='41'> +4.0961547e+02 </wgt>
<wgt id='42'> +3.6252838e+02 </wgt>
<wgt id='43'> +4.2605096e+02 </wgt>
<wgt id='44'> +3.6159746e+02 </wgt>
<wgt id='45'> +5.0481800e+02 </wgt>
<wgt id='46'> +5.0847506e+02 </wgt>
<wgt id='47'> +4.8790728e+02 </wgt>
<wgt id='48'> +4.9315445e+02 </wgt>
<wgt id='49'> +4.9667387e+02 </wgt>
<wgt id='50'> +4.5519514e+02 </wgt>
<wgt id='51'> +5.0110459e+02 </wgt>
<wgt id='52'> +4.9676523e+02 </wgt>
<wgt id='53'> +5.2181009e+02 </wgt>
<wgt id='54'> +4.9618404e+02 </wgt>
<wgt id='55'> +4.8203376e+02 </wgt>
<wgt id='56'> +5.3756898e+02 </wgt>
<wgt id='57'> +4.8797981e+02 </wgt>
<wgt id='58'> +5.3408728e+02 </wgt>
<wgt id='59'> +4.6285232e+02 </wgt>
<wgt id='60'> +5.1410292e+02 </wgt>
<wgt id='61'> +5.5499746e+02 </wgt>
<wgt id='62'> +5.1918576e+02 </wgt>
<wgt id='63'> +5.0766343e+02 </wgt>
<wgt id='64'> +5.0085084e+02 </wgt>
<wgt id='65'> +5.0067177e+02 </wgt>
<wgt id='66'> +5.1211921e+02 </wgt>
<wgt id='67'> +5.1325088e+02 </wgt>
<wgt id='68'> +4.3079343e+02 </wgt>
<wgt id='69'> +4.7678881e+02 </wgt>
<wgt id='70'> +4.9581980e+02 </wgt>
<wgt id='71'> +5.1538257e+02 </wgt>
<wgt id='72'> +5.3397643e+02 </wgt>
<wgt id='73'> +5.2540347e+02 </wgt>
<wgt id='74'> +4.5005297e+02 </wgt>
<wgt id='75'> +4.7931792e+02 </wgt>
<wgt id='76'> +5.2967214e+02 </wgt>
<wgt id='77'> +5.2038323e+02 </wgt>
<wgt id='78'> +5.3883806e+02 </wgt>
<wgt id='79'> +5.0917086e+02 </wgt>
<wgt id='80'> +5.5438891e+02 </wgt>
<wgt id='81'> +5.1579285e+02 </wgt>
<wgt id='82'> +5.0509771e+02 </wgt>
<wgt id='83'> +4.9565087e+02 </wgt>
<wgt id='84'> +5.0584484e+02 </wgt>
<wgt id='85'> +5.0400077e+02 </wgt>
<wgt id='86'> +4.9633466e+02 </wgt>
<wgt id='87'> +5.1039815e+02 </wgt>
<wgt id='88'> +5.0783767e+02 </wgt>
<wgt id='89'> +5.1468116e+02 </wgt>
<wgt id='90'> +5.3824588e+02 </wgt>
<wgt id='91'> +4.7479632e+02 </wgt>
<wgt id='92'> +5.4537434e+02 </wgt>
<wgt id='93'> +4.9144331e+02 </wgt>
<wgt id='94'> +5.1172279e+02 </wgt>
<wgt id='95'> +4.9988952e+02 </wgt>
<wgt id='96'> +4.8798238e+02 </wgt>
<wgt id='97'> +5.2917698e+02 </wgt>
<wgt id='98'> +5.1393212e+02 </wgt>
<wgt id='99'> +5.4129350e+02 </wgt>
<wgt id='100'> +5.4195866e+02 </wgt>
<wgt id='101'> +4.3411406e+02 </wgt>
<wgt id='102'> +4.6986136e+02 </wgt>
<wgt id='103'> +4.8444961e+02 </wgt>
<wgt id='104'> +4.8442806e+02 </wgt>
<wgt id='105'> +5.0693901e+02 </wgt>
<wgt id='106'> +5.4938358e+02 </wgt>
<wgt id='107'> +5.0374756e+02 </wgt>
<wgt id='108'> +5.6584499e+02 </wgt>
<wgt id='109'> +5.2136017e+02 </wgt>
<wgt id='110'> +5.2768541e+02 </wgt>
<wgt id='111'> +5.3387131e+02 </wgt>
<wgt id='112'> +5.2099231e+02 </wgt>
<wgt id='113'> +5.0947440e+02 </wgt>
<wgt id='114'> +5.0652976e+02 </wgt>
<wgt id='115'> +5.3174082e+02 </wgt>
<wgt id='116'> +4.6481145e+02 </wgt>
<wgt id='117'> +5.0376458e+02 </wgt>
<wgt id='118'> +4.7631891e+02 </wgt>
<wgt id='119'> +5.0731673e+02 </wgt>
<wgt id='120'> +5.1164220e+02 </wgt>
<wgt id='121'> +5.0453096e+02 </wgt>
<wgt id='122'> +5.2319613e+02 </wgt>
<wgt id='123'> +5.4115851e+02 </wgt>
<wgt id='124'> +4.5997843e+02 </wgt>
<wgt id='125'> +4.2829003e+02 </wgt>
<wgt id='126'> +5.0483980e+02 </wgt>
<wgt id='127'> +4.9500455e+02 </wgt>
<wgt id='128'> +5.0933512e+02 </wgt>
<wgt id='129'> +4.6962441e+02 </wgt>
<wgt id='130'> +4.9766095e+02 </wgt>
<wgt id='131'> +5.0196120e+02 </wgt>
<wgt id='132'> +4.7046819e+02 </wgt>
<wgt id='133'> +4.8767798e+02 </wgt>
<wgt id='134'> +4.9709904e+02 </wgt>
<wgt id='135'> +4.9031511e+02 </wgt>
<wgt id='136'> +4.8219973e+02 </wgt>
<wgt id='137'> +5.2063157e+02 </wgt>
<wgt id='138'> +5.1573503e+02 </wgt>
<wgt id='139'> +4.9413047e+02 </wgt>
<wgt id='140'> +5.0161830e+02 </wgt>
<wgt id='141'> +4.7718871e+02 </wgt>
<wgt id='142'> +5.6096906e+02 </wgt>
<wgt id='143'> +5.1909812e+02 </wgt>
<wgt id='144'> +5.4030676e+02 </wgt>
<wgt id='145'> +5.2635186e+02 </wgt>
</rwgt>
</event>
<event>
 4      1 +5.0481800e+02 2.30729300e+02 7.54677100e-03 1.12612700e-01
       21 -1    0    0  503  502 +0.0000000000e+00 +0.0000000000e+00 +5.5958351283e+02 5.5958351283e+02 0.0000000000e+00 0.0000e+00 1.0000e+00
       21 -1    0    0  501  503 -0.0000000000e+00 -0.0000000000e+00 -1.0112798513e+02 1.0112798513e+02 0.0000000000e+00 0.0000e+00 1.0000e+00
        6  1    1    2  501    0 +1.2505937965e+02 +8.7562389016e+01 +3.0964793869e+02 3.8615782569e+02 1.7300000000e+02 0.0000e+00 1.0000e+00
       -6  1    1    2    0  502 -1.2505937965e+02 -8.7562389016e+01 +1.4880758901e+02 2.7455367227e+02 1.7300000000e+02 0.0000e+00 1.0000e+00
<mgrwt>
<rscale>  2 0.23072932E+03</rscale>
<asrwt>0</asrwt>
<pdfrwt beam="1">  1       21 0.86089769E-01 0.23072932E+03</pdfrwt>
<pdfrwt beam="2">  1       21 0.15558152E-01 0.23072932E+03</pdfrwt>
<totfact> 0.41909236E+04</totfact>
</mgrwt>
<rwgt>
<wgt id='1'> +6.5265760e+02 </wgt>
<wgt id='2'> +5.4836037e+02 </wgt>
<wgt id='3'> +5.0481800e+02 </wgt>
<wgt id='4'> +6.5265759e+02 </wgt>
<wgt id='5'> +4.9931465e+02 </wgt>
<wgt id='6'> +6.1341035e+02 </wgt>
<wgt id='7'> +5.0972694e+02 </wgt>
<wgt id='8'> +4.6906080e+02 </wgt>
<wgt id='9'> +6.1341035e+02 </wgt>
<wgt id='10'> +4.6395070e+02 </wgt>
<wgt id='11'> +5.6996136e+02 </wgt>
<wgt id='12'> +4.7375229e+02 </wgt>
<wgt id='13'> +4.3607256e+02 </wgt>
<wgt id='14'> +5.6996135e+02 </wgt>
<wgt id='15'> +4.3133967e+02 </wgt>
<wgt id='16'> +5.3711729e+02 </wgt>
<wgt id='17'> +4.6102528e+02 </wgt>
<wgt id='18'> +4.2661930e+02 </wgt>
<wgt id='19'> +5.3711728e+02 </wgt>
<wgt id='20'> +4.2223153e+02 </wgt>
<wgt id='21'> +4.2854484e+02 </wgt>
<wgt id='22'> +3.9640106e+02 </wgt>
<wgt id='23'> +5.0481800e+02 </wgt>
<wgt id='24'> +3.9232700e+02 </wgt>
<wgt id='25'> +4.6906080e+02 </wgt>
<wgt id='26'> +3.9829973e+02 </wgt>
<wgt id='27'> +3.6852286e+02 </wgt>
<wgt id='28'> +4.6906080e+02 </wgt>
<wgt id='29'> +3.6475039e+02 </wgt>
<wgt id='30'> +4.5391528e+02 </wgt>
<wgt id='31'> +3.9313128e+02 </wgt>
<wgt id='32'> +3.6527503e+02 </wgt>
<wgt id='33'> +4.5391528e+02 </wgt>
<wgt id='34'> +3.6170974e+02 </wgt>
<wgt id='35'> +4.2661930e+02 </wgt>
<wgt id='36'> +3.6543415e+02 </wgt>
<wgt id='37'> +3.3940192e+02 </wgt>
<wgt id='38'> +4.2661930e+02 </wgt>
<wgt id='39'> +3.3609166e+02 </wgt>
<wgt id='40'> +3.9640107e+02 </wgt>
<wgt id='41'> +3.3964315e+02 </wgt>
<wgt id='42'> +3.1553237e+02 </wgt>
<wgt id='43'> +3.9640106e+02 </wgt>
<wgt id='44'> +3.1246782e+02 </wgt>
<wgt id='45'> +5.0481800e+02 </wgt>
<wgt id='46'> +5.1300210e+02 </wgt>
<wgt id='47'> +5.2163346e+02 </wgt>
<wgt id='48'> +5.0855217e+02 </wgt>
<wgt id='49'> +4.9848403e+02 </wgt>
<wgt id='50'> +5.9811096e+02 </wgt>
<wgt id='51'> +4.9321367e+02 </wgt>
<wgt id='52'> +5.0317254e+02 </wgt>
<wgt id='53'> +5.0196286e+02 </wgt>
<wgt id='54'> +5.1140383e+02 </wgt>
<wgt id='55'> +4.7085387e+02 </wgt>
<wgt id='56'> +4.6365858e+02 </wgt>
<wgt id='57'> +5.0231025e+02 </wgt>
<wgt id='58'> +4.9749405e+02 </wgt>
<wgt id='59'> +5.1620899e+02 </wgt>
<wgt id='60'> +4.9833388e+02 </wgt>
<wgt id='61'> +4.5520259e+02 </wgt>
<wgt id='62'> +4.9605509e+02 </wgt>
<wgt id='63'> +5.0665861e+02 </wgt>
<wgt id='64'> +4.9594892e+02 </wgt>
<wgt id='65'> +5.6964267e+02 </wgt>
<wgt id='66'> +4.9571853e+02 </wgt>
<wgt id='67'> +5.0828240e+02 </wgt>
<wgt id='68'> +5.5286773e+02 </wgt>
<wgt id='69'> +5.0230094e+02 </wgt>
<wgt id='70'> +4.9838848e+02 </wgt>
<wgt id='71'> +5.1071952e+02 </wgt>
<wgt id='72'> +4.8566681e+02 </wgt>
<wgt id='73'> +4.9111532e+02 </wgt>
<wgt id='74'> +5.3047940e+02 </wgt>
<wgt id='75'> +5.1688682e+02 </wgt>
<wgt id='76'> +4.9616302e+02 </wgt>
<wgt id='77'> +4.9272300e+02 </wgt>
<wgt id='78'> +4.8846016e+02 </wgt>
<wgt id='79'> +4.9557879e+02 </wgt>
<wgt id='80'> +4.9303328e+02 </wgt>
<wgt id='81'> +4.9570844e+02 </wgt>
<wgt id='82'> +5.0332191e+02 </wgt>
<wgt id='83'> +5.1248851e+02 </wgt>
<wgt id='84'> +5.4514122e+02 </wgt>
<wgt id='85'> +5.1822303e+02 </wgt>
<wgt id='86'> +5.0634701e+02 </wgt>
<wgt id='87'> +5.0726780e+02 </wgt>
<wgt id='88'> +5.0908228e+02 </wgt>
<wgt id='89'> +5.1182382e+02 </wgt>
<wgt id='90'> +5.1287243e+02 </wgt>
<wgt id='91'> +5.2169369e+02 </wgt>
<wgt id='92'> +4.6197388e+02 </wgt>
<wgt id='93'> +5.0104148e+02 </wgt>
<wgt id='94'> +4.9372855e+02 </wgt>
<wgt id='95'> +4.9433390e+02 </wgt>
<wgt id='96'> +5.4227598e+02 </wgt>
<wgt id='97'> +5.0239745e+02 </wgt>
<wgt id='98'> +4.9119452e+02 </wgt>
<wgt id='99'> +4.8134048e+02 </wgt>
<wgt id='100'> +4.7795117e+02 </wgt>
<wgt id='101'> +5.4984916e+02 </wgt>
<wgt id='102'> +5.1195326e+02 </wgt>
<wgt id='103'> +5.4371566e+02 </wgt>
<wgt id='104'> +5.0872991e+02 </wgt>
<wgt id='105'> +5.2135328e+02 </wgt>
<wgt id='106'> +4.6207513e+02 </wgt>
<wgt id='107'> +4.8586941e+02 </wgt>
<wgt id='108'> +4.4815877e+02 </wgt>
<wgt id='109'> +4.7525899e+02 </wgt>
<wgt id='110'> +5.0101060e+02 </wgt>
<wgt id='111'> +4.9116103e+02 </wgt>
<wgt id='112'> +4.7965851e+02 </wgt>
<wgt id='113'> +4.6784003e+02 </wgt>
<wgt id='114'> +4.9651501e+02 </wgt>
<wgt id='115'> +4.8597695e+02 </wgt>
<wgt id='116'> +5.1797454e+02 </wgt>
<wgt id='117'> +5.0251264e+02 </wgt>
<wgt id='118'> +5.2603107e+02 </wgt>
<wgt id='119'> +4.9132054e+02 </wgt>
<wgt id='120'> +4.9508477e+02 </wgt>
<wgt id='121'> +4.9370837e+02 </wgt>
<wgt id='122'> +4.9910348e+02 </wgt>
<wgt id='123'> +5.0890301e+02 </wgt>
<wgt id='124'> +5.5276208e+02 </wgt>
<wgt id='125'> +5.5725920e+02 </wgt>
<wgt id='126'> +5.2119418e+02 </wgt>
<wgt id='127'> +5.1793703e+02 </wgt>
<wgt id='128'> +4.6251142e+02 </wgt>
<wgt id='129'> +5.6571618e+02 </wgt>
<wgt id='130'> +5.0227764e+02 </wgt>
<wgt id='131'> +5.2871918e+02 </wgt>
<wgt id='132'> +5.2111896e+02 </wgt>
<wgt id='133'> +5.1437751e+02 </wgt>
<wgt id='134'> +4.8719632e+02 </wgt>
<wgt id='135'> +5.1281999e+02 </wgt>
<wgt id='136'> +5.1089540e+02 </wgt>
<wgt id='137'> +4.8280835e+02 </wgt>
<wgt id='138'> +4.7190938e+02 </wgt>
<wgt id='139'> +5.1838262e+02 </wgt>
<wgt id='140'> +5.2352179e+02 </wgt>
<wgt id='141'> +5.1135273e+02 </wgt>
<wgt id='142'> +4.8210333e+02 </wgt>
<wgt id='143'> +5.1082393e+02 </wgt>
<wgt id='144'> +4.9658448e+02 </wgt>
<wgt id='145'> +5.0252168e+02 </wgt>
</rwgt>
</event>
<event>
 4      1 +5.0481800e+02 2.21673900e+02 7.54677100e-03 1.13264100e-01
       21 -1    0    0  501  502 +0.0000000000e+00 +0.0000000000e+00 +1.6053419059e+02 1.6053419059e+02 0.0000000000e+00 0.0000e+00 -1.0000e+00
       21 -1    0    0  502  503 -0.0000000000e+00 -0.0000000000e+00 -3.4917657808e+02 3.4917657808e+02 0.0000000000e+00 0.0000e+00 1.0000e+00
        6  1    1    2  501    0 -1.2923111914e+02 -5.0096091136e+01 -4.8056162204e+00 2.2172594446e+02 1.7300000000e+02 0.0000e+00 -1.0000e+00
       -6  1    1    2    0  503 +1.2923111914e+02 +5.0096091136e+01 -1.8383677127e+02 2.8798482420e+02 1.7300000000e+02 0.0000e+00 1.0000e+00
<mgrwt>
<rscale>  2 0.22167386E+03</rscale>
<asrwt>0</asrwt>
<pdfrwt beam="1">  1       21 0.24697568E-01 0.22167386E+03</pdfrwt>
<pdfrwt beam="2">  1       21 0.53719473E-01 0.22167386E+03</pdfrwt>
<totfact> 0.50128453E+04</totfact>
</mgrwt>
<rwgt>
<wgt id='1'> +6.4989476e+02 </wgt>
<wgt id='2'> +5.2595707e+02 </wgt>
<wgt id='3'> +5.0481800e+02 </wgt>
<wgt id='4'> +6.4989476e+02 </wgt>
<wgt id='5'> +4.9324582e+02 </wgt>
<wgt id='6'> +6.1474507e+02 </wgt>
<wgt id='7'> +4.9107689e+02 </wgt>
<wgt id='8'> +4.7133459e+02 </wgt>
<wgt id='9'> +6.1474507e+02 </wgt>
<wgt id='10'> +4.6054785e+02 </wgt>
<wgt id='11'> +5.7397045e+02 </wgt>
<wgt id='12'> +4.5858818e+02 </wgt>
<wgt id='13'> +4.4019277e+02 </wgt>
<wgt id='14'> +5.7397045e+02 </wgt>
<wgt id='15'> +4.3014525e+02 </wgt>
<wgt id='16'> +5.3368232e+02 </wgt>
<wgt id='17'> +4.4309343e+02 </wgt>
<wgt id='18'> +4.2629185e+02 </wgt>
<wgt id='19'> +5.3368231e+02 </wgt>
<wgt id='20'> +4.1705923e+02 </wgt>
<wgt id='21'> +4.1370857e+02 </wgt>
<wgt id='22'> +3.9801689e+02 </wgt>
<wgt id='23'> +5.0481800e+02 </wgt>
<wgt id='24'> +3.8941178e+02 </wgt>
<wgt id='25'> +4.7133459e+02 </wgt>
<wgt id='26'> +3.8633840e+02 </wgt>
<wgt id='27'> +3.7171929e+02 </wgt>
<wgt id='28'> +4.7133459e+02 </wgt>
<wgt id='29'> +3.6370516e+02 </wgt>
<wgt id='30'> +4.5066622e+02 </wgt>
<wgt id='31'> +3.7833694e+02 </wgt>
<wgt id='32'> +3.6474028e+02 </wgt>
<wgt id='33'> +4.5066622e+02 </wgt>
<wgt id='34'> +3.5724945e+02 </wgt>
<wgt id='35'> +4.2629185e+02 </wgt>
<wgt id='36'> +3.5324656e+02 </wgt>
<wgt id='37'> +3.4054790e+02 </wgt>
<wgt id='38'> +4.2629185e+02 </wgt>
<wgt id='39'> +3.3356688e+02 </wgt>
<wgt id='40'> +3.9801689e+02 </wgt>
<wgt id='41'> +3.2987644e+02 </wgt>
<wgt id='42'> +3.1804737e+02 </wgt>
<wgt id='43'> +3.9801689e+02 </wgt>
<wgt id='44'> +3.1154680e+02 </wgt>
<wgt id='45'> +5.0481800e+02 </wgt>
<wgt id='46'> +5.0728822e+02 </wgt>
<wgt id='47'> +5.2361033e+02 </wgt>
<wgt id='48'> +5.0759999e+02 </wgt>
<wgt id='49'> +5.0319757e+02 </wgt>
<wgt id='50'> +5.9416647e+02 </wgt>
<wgt id='51'> +4.9502622e+02 </wgt>
<wgt id='52'> +5.0248502e+02 </wgt>
<wgt id='53'> +5.0862035e+02 </wgt>
<wgt id='54'> +5.0795541e+02 </wgt>
<wgt id='55'> +4.5282893e+02 </wgt>
<wgt id='56'> +4.6743820e+02 </wgt>
<wgt id='57'> +4.9229158e+02 </wgt>
<wgt id='58'> +5.0563828e+02 </wgt>
<wgt id='59'> +5.0085487e+02 </wgt>
<wgt id='60'> +4.8719581e+02 </wgt>
<wgt id='61'> +4.8545335e+02 </wgt>
<wgt id='62'> +4.9844738e+02 </wgt>
<wgt id='63'> +5.0531744e+02 </wgt>
<wgt id='64'> +4.9808211e+02 </wgt>
<wgt id='65'> +5.9259834e+02 </wgt>
<wgt id='66'> +4.9356005e+02 </wgt>
<wgt id='67'> +5.0925681e+02 </wgt>
<wgt id='68'> +5.4358430e+02 </wgt>
<wgt id='69'> +4.9547797e+02 </wgt>
<wgt id='70'> +4.9625958e+02 </wgt>
<wgt id='71'> +5.1401490e+02 </wgt>
<wgt id='72'> +4.8724510e+02 </wgt>
<wgt id='73'> +4.9676597e+02 </wgt>
<wgt id='74'> +5.2246875e+02 </wgt>
<wgt id='75'> +5.1647731e+02 </wgt>
<wgt id='76'> +4.9025191e+02 </wgt>
<wgt id='77'> +4.8805701e+02 </wgt>
<wgt id='78'> +5.0177446e+02 </wgt>
<wgt id='79'> +4.8634310e+02 </wgt>
<wgt id='80'> +4.9928667e+02 </wgt>
<wgt id='81'> +4.9487487e+02 </wgt>
<wgt id='82'> +5.1603734e+02 </wgt>
<wgt id='83'> +5.1591283e+02 </wgt>
<wgt id='84'> +5.5445339e+02 </wgt>
<wgt id='85'> +5.2996997e+02 </wgt>
<wgt id='86'> +5.0303595e+02 </wgt>
<wgt id='87'> +5.0565462e+02 </wgt>
<wgt id='88'> +5.1372068e+02 </wgt>
<wgt id='89'> +5.1710768e+02 </wgt>
<wgt id='90'> +5.1135817e+02 </wgt>
<wgt id='91'> +5.3523248e+02 </wgt>
<wgt id='92'> +4.6138168e+02 </wgt>
<wgt id='93'> +4.9756662e+02 </wgt>
<wgt id='94'> +5.0021596e+02 </wgt>
<wgt id='95'> +4.8438802e+02 </wgt>
<wgt id='96'> +5.4727714e+02 </wgt>
<wgt id='97'> +5.1073303e+02 </wgt>
<wgt id='98'> +4.8293039e+02 </wgt>
<wgt id='99'> +4.8876081e+02 </wgt>
<wgt id='100'> +4.9607690e+02 </wgt>
<wgt id='101'> +5.3516158e+02 </wgt>
<wgt id='102'> +4.9509186e+02 </wgt>
<wgt id='103'> +5.4901459e+02 </wgt>
<wgt id='104'> +5.0529536e+02 </wgt>
<wgt id='105'> +5.2311126e+02 </wgt>
<wgt id='106'> +4.6156869e+02 </wgt>
<wgt id='107'> +4.9459170e+02 </wgt>
<wgt id='108'> +4.4957074e+02 </wgt>
<wgt id='109'> +4.7270593e+02 </wgt>
<wgt id='110'> +5.0474231e+02 </wgt>
<wgt id='111'> +4.9065773e+02 </wgt>
<wgt id='112'> +4.7993705e+02 </wgt>
<wgt id='113'> +4.6266022e+02 </wgt>
<wgt id='114'> +4.9997813e+02 </wgt>
<wgt id='115'> +5.0101905e+02 </wgt>
<wgt id='116'> +5.0802875e+02 </wgt>
<wgt id='117'> +5.0965565e+02 </wgt>
<wgt id='118'> +5.2043577e+02 </wgt>
<wgt id='119'> +4.8490022e+02 </wgt>
<wgt id='120'> +5.0006417e+02 </wgt>
<wgt id='121'> +4.8995124e+02 </wgt>
<wgt id='122'> +4.9804679e+02 </wgt>
<wgt id='123'> +5.1175420e+02 </wgt>
<wgt id='124'> +5.4281628e+02 </wgt>
<wgt id='125'> +5.4397667e+02 </wgt>
<wgt id='126'> +5.2494609e+02 </wgt>
<wgt id='127'> +5.2039950e+02 </wgt>
<wgt id='128'> +4.6685052e+02 </wgt>
<wgt id='129'> +5.7157918e+02 </wgt>
<wgt id='130'> +5.0877321e+02 </wgt>
<wgt id='131'> +5.3935772e+02 </wgt>
<wgt id='132'> +5.0309553e+02 </wgt>
<wgt id='133'> +5.0427703e+02 </wgt>
<wgt id='134'> +4.7646394e+02 </wgt>
<wgt id='135'> +5.1724361e+02 </wgt>
<wgt id='136'> +4.8770019e+02 </wgt>
<wgt id='137'> +4.7696816e+02 </wgt>
<wgt id='138'> +4.6259349e+02 </wgt>
<wgt id='139'> +5.1566811e+02 </wgt>
<wgt id='140'> +5.3421297e+02 </wgt>
<wgt id='141'> +5.0524560e+02 </wgt>
<wgt id='142'> +5.0375341e+02 </wgt>
<wgt id='143'> +5.0232715e+02 </wgt>
<wgt id='144'> +5.0246613e+02 </wgt>
<wgt id='145'> +5.0586824e+02 </wgt>
</rwgt>
</event>
<event>
 4      1 +5.0481800e+02 1.74134500e+02 7.54677100e-03 1.17360400e-01
       21 -1    0    0  503  502 +0.0000000000e+00 +0.0000000000e+00 +1.3175302906e+02 1.3175302906e+02 0.0000000000e+00 0.0000e+00 1.0000e+00
       21 -1    0    0  501  503 -0.0000000000e+00 -0.0000000000e+00 -4.2117121654e+02 4.2117121654e+02 0.0000000000e+00 0.0000e+00 1.0000e+00
        6  1    1    2  501    0 -1.4530018307e+01 +1.3516655271e+01 -3.3089563868e+02 3.7391809946e+02 1.7300000000e+02 0.0000e+00 1.0000e+00
       -6  1    1    2    0  502 +1.4530018307e+01 -1.3516655271e+01 +4.1477451198e+01 1.7900614615e+02 1.7300000000e+02 0.0000e+00 1.0000e+00
<mgrwt>
<rscale>  2 0.17413449E+03</rscale>
<asrwt>0</asrwt>
<pdfrwt beam="1">  1       21 0.20269697E-01 0.17413449E+03</pdfrwt>
<pdfrwt beam="2">  1       21 0.64795571E-01 0.17413449E+03</pdfrwt>
<totfact> 0.49846517E+04</totfact>
</mgrwt>
<rwgt>
<wgt id='1'> +6.5441996e+02 </wgt>
<wgt id='2'> +8.1652734e+02 </wgt>
<wgt id='3'> +5.0481800e+02 </wgt>
<wgt id='4'> +6.5441996e+02 </wgt>
<wgt id='5'> +4.5311066e+02 </wgt>
<wgt id='6'> +6.2241317e+02 </wgt>
<wgt id='7'> +7.8161410e+02 </wgt>
<wgt id='8'> +4.7135741e+02 </wgt>
<wgt id='9'> +6.2241317e+02 </wgt>
<wgt id='10'> +4.2261130e+02 </wgt>
<wgt id='11'> +5.8115809e+02 </wgt>
<wgt id='12'> +7.4097550e+02 </wgt>
<wgt id='13'> +4.3966669e+02 </wgt>
<wgt id='14'> +5.8115808e+02 </wgt>
<wgt id='15'> +3.9429464e+02 </wgt>
<wgt id='16'> +5.3077761e+02 </wgt>
<wgt id='17'> +6.4913214e+02 </wgt>
<wgt id='18'> +4.2368696e+02 </wgt>
<wgt id='19'> +5.3077761e+02 </wgt>
<wgt id='20'> +3.8308374e+02 </wgt>
<wgt id='21'> +6.2137642e+02 </wgt>
<wgt id='22'> +3.9560394e+02 </wgt>
<wgt id='23'> +5.0481800e+02 </wgt>
<wgt id='24'> +3.5729797e+02 </wgt>
<wgt id='25'> +4.7135742e+02 </wgt>
<wgt id='26'> +5.8906909e+02 </wgt>
<wgt id='27'> +3.6900634e+02 </wgt>
<wgt id='28'> +4.7135741e+02 </wgt>
<wgt id='29'> +3.3335757e+02 </wgt>
<wgt id='30'> +4.4547451e+02 </wgt>
<wgt id='31'> +5.2989915e+02 </wgt>
<wgt id='32'> +3.6093774e+02 </wgt>
<wgt id='33'> +4.4547451e+02 </wgt>
<wgt id='34'> +3.2811757e+02 </wgt>
<wgt id='35'> +4.2368696e+02 </wgt>
<wgt id='36'> +5.0724161e+02 </wgt>
<wgt id='37'> +3.3701389e+02 </wgt>
<wgt id='38'> +4.2368696e+02 </wgt>
<wgt id='39'> +3.0603163e+02 </wgt>
<wgt id='40'> +3.9560394e+02 </wgt>
<wgt id='41'> +4.8086851e+02 </wgt>
<wgt id='42'> +3.1435547e+02 </wgt>
<wgt id='43'> +3.9560394e+02 </wgt>
<wgt id='44'> +2.8552628e+02 </wgt>
<wgt id='45'> +5.0481800e+02 </wgt>
<wgt id='46'> +5.0809765e+02 </wgt>
<wgt id='47'> +5.2285348e+02 </wgt>
<wgt id='48'> +5.0752372e+02 </wgt>
<wgt id='49'> +5.0264269e+02 </wgt>
<wgt id='50'> +5.9511286e+02 </wgt>
<wgt id='51'> +4.9466292e+02 </wgt>
<wgt id='52'> +5.0326980e+02 </wgt>
<wgt id='53'> +5.0708933e+02 </wgt>
<wgt id='54'> +5.0842728e+02 </wgt>
<wgt id='55'> +4.5547385e+02 </wgt>
<wgt id='56'> +4.6593666e+02 </wgt>
<wgt id='57'> +4.9430846e+02 </wgt>
<wgt id='58'> +5.0501697e+02 </wgt>
<wgt id='59'> +5.0404089e+02 </wgt>
<wgt id='60'> +4.8952746e+02 </wgt>
<wgt id='61'> +4.7855348e+02 </wgt>
<wgt id='62'> +4.9801504e+02 </wgt>
<wgt id='63'> +5.0525226e+02 </wgt>
<wgt id='64'> +4.9765556e+02 </wgt>
<wgt id='65'> +5.8939616e+02 </wgt>
<wgt id='66'> +4.9325213e+02 </wgt>
<wgt id='67'> +5.0905032e+02 </wgt>
<wgt id='68'> +5.4536026e+02 </wgt>
<wgt id='69'> +4.9526036e+02 </wgt>
<wgt id='70'> +4.9614577e+02 </wgt>
<wgt id='71'> +5.1395993e+02 </wgt>
<wgt id='72'> +4.8832484e+02 </wgt>
<wgt id='73'> +4.9624931e+02 </wgt>
<wgt id='74'> +5.2367249e+02 </wgt>
<wgt id='75'> +5.1610178e+02 </wgt>
<wgt id='76'> +4.9132355e+02 </wgt>
<wgt id='77'> +4.8889346e+02 </wgt>
<wgt id='78'> +4.9958854e+02 </wgt>
<wgt id='79'> +4.8739463e+02 </wgt>
<wgt id='80'> +4.9829615e+02 </wgt>
<wgt id='81'> +4.9474640e+02 </wgt>
<wgt id='82'> +5.1369588e+02 </wgt>
<wgt id='83'> +5.1491792e+02 </wgt>
<wgt id='84'> +5.5304979e+02 </wgt>
<wgt id='85'> +5.2839488e+02 </wgt>
<wgt id='86'> +5.0302230e+02 </wgt>
<wgt id='87'> +5.0609107e+02 </wgt>
<wgt id='88'> +5.1232321e+02 </wgt>
<wgt id='89'> +5.1725160e+02 </wgt>
<wgt id='90'> +5.1250807e+02 </wgt>
<wgt id='91'> +5.3352441e+02 </wgt>
<wgt id='92'> +4.6182949e+02 </wgt>
<wgt id='93'> +4.9788371e+02 </wgt>
<wgt id='94'> +4.9951646e+02 </wgt>
<wgt id='95'> +4.8637696e+02 </wgt>
<wgt id='96'> +5.4612984e+02 </wgt>
<wgt id='97'> +5.0968255e+02 </wgt>
<wgt id='98'> +4.8365936e+02 </wgt>
<wgt id='99'> +4.8786731e+02 </wgt>
<wgt id='100'> +4.9377263e+02 </wgt>
<wgt id='101'> +5.3794673e+02 </wgt>
<wgt id='102'> +4.9729555e+02 </wgt>
<wgt id='103'> +5.4926435e+02 </wgt>
<wgt id='104'> +5.0507296e+02 </wgt>
<wgt id='105'> +5.2368135e+02 </wgt>
<wgt id='106'> +4.6145782e+02 </wgt>
<wgt id='107'> +4.9325953e+02 </wgt>
<wgt id='108'> +4.4840697e+02 </wgt>
<wgt id='109'> +4.7297496e+02 </wgt>
<wgt id='110'> +5.0480252e+02 </wgt>
<wgt id='111'> +4.9077351e+02 </wgt>
<wgt id='112'> +4.7897058e+02 </wgt>
<wgt id='113'> +4.6277782e+02 </wgt>
<wgt id='114'> +4.9944263e+02 </wgt>
<wgt id='115'> +4.9747941e+02 </wgt>
<wgt id='116'> +5.0910601e+02 </wgt>
<wgt id='117'> +5.0815364e+02 </wgt>
<wgt id='118'> +5.2144976e+02 </wgt>
<wgt id='119'> +4.8571627e+02 </wgt>
<wgt id='120'> +4.9817231e+02 </wgt>
<wgt id='121'> +4.9111505e+02 </wgt>
<wgt id='122'> +4.9839524e+02 </wgt>
<wgt id='123'> +5.1096237e+02 </wgt>
<wgt id='124'> +5.4494705e+02 </wgt>
<wgt id='125'> +5.4631483e+02 </wgt>
<wgt id='126'> +5.2419362e+02 </wgt>
<wgt id='127'> +5.2037445e+02 </wgt>
<wgt id='128'> +4.6465685e+02 </wgt>
<wgt id='129'> +5.7215946e+02 </wgt>
<wgt id='130'> +5.0667677e+02 </wgt>
<wgt id='131'> +5.3840757e+02 </wgt>
<wgt id='132'> +5.0712347e+02 </wgt>
<wgt id='133'> +5.0571340e+02 </wgt>
<wgt id='134'> +4.7793358e+02 </wgt>
<wgt id='135'> +5.1705653e+02 </wgt>
<wgt id='136'> +4.9203787e+02 </wgt>
<wgt id='137'> +4.7668901e+02 </wgt>
<wgt id='138'> +4.6202076e+02 </wgt>
<wgt id='139'> +5.1652456e+02 </wgt>
<wgt id='140'> +5.3295205e+02 </wgt>
<wgt id='141'> +5.0554465e+02 </wgt>
<wgt id='142'> +5.0038202e+02 </wgt>
<wgt id='143'> +5.0424609e+02 </wgt>
<wgt id='144'> +5.0216597e+02 </wgt>
<wgt id='145'> +5.0560921e+02 </wgt>
</rwgt>
</event>
<event>
 4      1 +5.0481800e+02 1.79881200e+02 7.54677100e-03 1.16791800e-01
       21 -1    0    0  503  502 +0.0000000000e+00 +0.0000000000e+00 +9.0780885726e+02 9.0780885726e+02 0.0000000000e+00 0.0000e+00 1.0000e+00
       21 -1    0    0  501  503 -0.0000000000e+00 -0.0000000000e+00 -3.5655860719e+01 3.5655860719e+01 0.0000000000e+00 0.0000e+00 1.0000e+00
        6  1    1    2  501    0 -1.9387103630e+01 -4.5303155408e+01 +4.4495672627e+02 4.7994137552e+02 1.7300000000e+02 0.0000e+00 1.0000e+00
       -6  1    1    2    0  502 +1.9387103630e+01 +4.5303155408e+01 +4.2719627026e+02 4.6352334246e+02 1.7300000000e+02 0.0000e+00 1.0000e+00
<mgrwt>
<rscale>  2 0.17988117E+03</rscale>
<asrwt>0</asrwt>
<pdfrwt beam="1">  1       21 0.13966288E+00 0.17988117E+03</pdfrwt>
<pdfrwt beam="2">  1       21 0.54855177E-02 0.17988117E+03</pdfrwt>
<totfact> 0.83252710E+04</totfact>
</mgrwt>
<rwgt>
<wgt id='1'> +6.5369761e+02 </wgt>
<wgt id='2'> +8.0454071e+02 </wgt>
<wgt id='3'> +5.0481800e+02 </wgt>
<wgt id='4'> +6.5369761e+02 </wgt>
<wgt id='5'> +5.0478564e+02 </wgt>
<wgt id='6'> +6.2145156e+02 </wgt>
<wgt id='7'> +7.7077110e+02 </wgt>
<wgt id='8'> +4.7078534e+02 </wgt>
<wgt id='9'> +6.2145155e+02 </wgt>
<wgt id='10'> +4.7075414e+02 </wgt>
<wgt id='11'> +5.7955596e+02 </wgt>
<wgt id='12'> +7.2927835e+02 </wgt>
<wgt id='13'> +4.3851325e+02 </wgt>
<wgt id='14'> +5.7955596e+02 </wgt>
<wgt id='15'> +4.3848419e+02 </wgt>
<wgt id='16'> +5.3101214e+02 </wgt>
<wgt id='17'> +6.4103411e+02 </wgt>
<wgt id='18'> +4.2414108e+02 </wgt>
<wgt id='19'> +5.3101214e+02 </wgt>
<wgt id='20'> +4.2411628e+02 </wgt>
<wgt id='21'> +6.1412749e+02 </wgt>
<wgt id='22'> +3.9554731e+02 </wgt>
<wgt id='23'> +5.0481800e+02 </wgt>
<wgt id='24'> +3.9552333e+02 </wgt>
<wgt id='25'> +4.7078534e+02 </wgt>
<wgt id='26'> +5.8106730e+02 </wgt>
<wgt id='27'> +3.6843275e+02 </wgt>
<wgt id='28'> +4.7078534e+02 </wgt>
<wgt id='29'> +3.6841041e+02 </wgt>
<wgt id='30'> +4.4614904e+02 </wgt>
<wgt id='31'> +5.2507232e+02 </wgt>
<wgt id='32'> +3.6154083e+02 </wgt>
<wgt id='33'> +4.4614904e+02 </wgt>
<wgt id='34'> +3.6152087e+02 </wgt>
<wgt id='35'> +4.2414108e+02 </wgt>
<wgt id='36'> +5.0303305e+02 </wgt>
<wgt id='37'> +3.3716730e+02 </wgt>
<wgt id='38'> +4.2414108e+02 </wgt>
<wgt id='39'> +3.3714795e+02 </wgt>
<wgt id='40'> +3.9554731e+02 </wgt>
<wgt id='41'> +4.7595339e+02 </wgt>
<wgt id='42'> +3.1405466e+02 </wgt>
<wgt id='43'> +3.9554731e+02 </wgt>
<wgt id='44'> +3.1403664e+02 </wgt>
<wgt id='45'> +5.0481800e+02 </wgt>
<wgt id='46'> +5.1806686e+02 </wgt>
<wgt id='47'> +5.1416383e+02 </wgt>
<wgt id='48'> +5.0537479e+02 </wgt>
<wgt id='49'> +4.8590840e+02 </wgt>
<wgt id='50'> +5.8650483e+02 </wgt>
<wgt id='51'> +4.8633821e+02 </wgt>
<wgt id='52'> +4.9641089e+02 </wgt>
<wgt id='53'> +4.9620538e+02 </wgt>
<wgt id='54'> +5.2267626e+02 </wgt>
<wgt id='55'> +5.1780415e+02 </wgt>
<wgt id='56'> +4.7077480e+02 </wgt>
<wgt id='57'> +5.2295375e+02 </wgt>
<wgt id='58'> +4.8240073e+02 </wgt>
<wgt id='59'> +5.3952783e+02 </wgt>
<wgt id='60'> +5.1343738e+02 </wgt>
<wgt id='61'> +4.4365187e+02 </wgt>
<wgt id='62'> +4.8553086e+02 </wgt>
<wgt id='63'> +5.1631037e+02 </wgt>
<wgt id='64'> +5.0147402e+02 </wgt>
<wgt id='65'> +5.1129511e+02 </wgt>
<wgt id='66'> +5.0093265e+02 </wgt>
<wgt id='67'> +5.0637137e+02 </wgt>
<wgt id='68'> +5.7062838e+02 </wgt>
<wgt id='69'> +5.1408957e+02 </wgt>
<wgt id='70'> +5.1135244e+02 </wgt>
<wgt id='71'> +4.9532465e+02 </wgt>
<wgt id='72'> +4.8534324e+02 </wgt>
<wgt id='73'> +4.7820203e+02 </wgt>
<wgt id='74'> +5.4670043e+02 </wgt>
<wgt id='75'> +5.2219578e+02 </wgt>
<wgt id='76'> +5.0942936e+02 </wgt>
<wgt id='77'> +4.9382320e+02 </wgt>
<wgt id='78'> +4.6364858e+02 </wgt>
<wgt id='79'> +5.1622893e+02 </wgt>
<wgt id='80'> +4.7623919e+02 </wgt>
<wgt id='81'> +5.0437914e+02 </wgt>
<wgt id='82'> +4.8729972e+02 </wgt>
<wgt id='83'> +5.0055829e+02 </wgt>
<wgt id='84'> +5.1626462e+02 </wgt>
<wgt id='85'> +4.8977835e+02 </wgt>
<wgt id='86'> +5.1302178e+02 </wgt>
<wgt id='87'> +5.0632481e+02 </wgt>
<wgt id='88'> +4.9547917e+02 </wgt>
<wgt id='89'> +4.8568272e+02 </wgt>
<wgt id='90'> +5.0313985e+02 </wgt>
<wgt id='91'> +4.8601131e+02 </wgt>
<wgt id='92'> +4.7113532e+02 </wgt>
<wgt id='93'> +5.0615536e+02 </wgt>
<wgt id='94'> +4.8038372e+02 </wgt>
<wgt id='95'> +5.1769161e+02 </wgt>
<wgt id='96'> +5.2715279e+02 </wgt>
<wgt id='97'> +4.8297200e+02 </wgt>
<wgt id='98'> +5.1099853e+02 </wgt>
<wgt id='99'> +4.6155507e+02 </wgt>
<wgt id='100'> +4.4039227e+02 </wgt>
<wgt id='101'> +5.6890026e+02 </wgt>
<wgt id='102'> +5.3996594e+02 </wgt>
<wgt id='103'> +5.1901700e+02 </wgt>
<wgt id='104'> +5.1715900e+02 </wgt>
<wgt id='105'> +5.1991813e+02 </wgt>
<wgt id='106'> +4.7613402e+02 </wgt>
<wgt id='107'> +4.8184826e+02 </wgt>
<wgt id='108'> +4.5982234e+02 </wgt>
<wgt id='109'> +4.9000466e+02 </wgt>
<wgt id='110'> +4.9047735e+02 </wgt>
<wgt id='111'> +4.9360834e+02 </wgt>
<wgt id='112'> +4.9808363e+02 </wgt>
<wgt id='113'> +4.9252201e+02 </wgt>
<wgt id='114'> +5.0677281e+02 </wgt>
<wgt id='115'> +4.6720210e+02 </wgt>
<wgt id='116'> +5.3301695e+02 </wgt>
<wgt id='117'> +4.9329377e+02 </wgt>
<wgt id='118'> +5.2684774e+02 </wgt>
<wgt id='119'> +5.1762969e+02 </wgt>
<wgt id='120'> +4.9820547e+02 </wgt>
<wgt id='121'> +5.0389026e+02 </wgt>
<wgt id='122'> +4.9954524e+02 </wgt>
<wgt id='123'> +4.9730908e+02 </wgt>
<wgt id='124'> +5.6154654e+02 </wgt>
<wgt id='125'> +5.8425983e+02 </wgt>
<wgt id='126'> +5.0833711e+02 </wgt>
<wgt id='127'> +5.0469815e+02 </wgt>
<wgt id='128'> +4.6682236e+02 </wgt>
<wgt id='129'> +5.4242014e+02 </wgt>
<wgt id='130'> +4.8620176e+02 </wgt>
<wgt id='131'> +5.0010398e+02 </wgt>
<wgt id='132'> +5.4696458e+02 </wgt>
<wgt id='133'> +5.3206035e+02 </wgt>
<wgt id='134'> +5.1019135e+02 </wgt>
<wgt id='135'> +5.0004010e+02 </wgt>
<wgt id='136'> +5.5787497e+02 </wgt>
<wgt id='137'> +4.9744577e+02 </wgt>
<wgt id='138'> +4.8922415e+02 </wgt>
<wgt id='139'> +5.2074835e+02 </wgt>
<wgt id='140'> +5.0479984e+02 </wgt>
<wgt id='141'> +5.3056228e+02 </wgt>
<wgt id='142'> +4.3387425e+02 </wgt>
<wgt id='143'> +5.2071146e+02 </wgt>
<wgt id='144'> +4.8320900e+02 </wgt>
<wgt id='145'> +4.8611786e+02 </wgt>
</rwgt>
</event>
<event>
 4      1 +5.0481800e+02 1.73026700e+02 7.54677100e-03 1.17472800e-01
        2 -1    0    0  502    0 +0.0000000000e+00 +0.0000000000e+00 +2.8728790370e+02 2.8728790370e+02 0.0000000000e+00 0.0000e+00 1.0000e+00
       -2 -1    0    0    0  501 -0.0000000000e+00 -0.0000000000e+00 -1.1994271868e+02 1.1994271868e+02 0.0000000000e+00 0.0000e+00 -1.0000e+00
        6  1    1    2  502    0 +9.0095121107e-01 -2.9023727991e+00 +9.9285141025e+00 1.7331131202e+02 1.7300000000e+02 0.0000e+00 -1.0000e+00
       -6  1    1    2    0  501 -9.0095121107e-01 +2.9023727991e+00 +1.5741667092e+02 2.3391931037e+02 1.7300000000e+02 0.0000e+00 1.0000e+00
<mgrwt>
<rscale>  2 0.17302669E+03</rscale>
<asrwt>0</asrwt>
<pdfrwt beam="1">  1        2 0.44198139E-01 0.17302669E+03</pdfrwt>
<pdfrwt beam="2">  1       -2 0.18452726E-01 0.17302669E+03</pdfrwt>
<totfact> 0.27118590E+03</totfact>
</mgrwt>
<rwgt>
<wgt id='1'> +6.0330481e+02 </wgt>
<wgt id='2'> +8.3522722e+02 </wgt>
<wgt id='3'> +5.0481800e+02 </wgt>
<wgt id='4'> +6.0330481e+02 </wgt>
<wgt id='5'> +4.9658799e+02 </wgt>
<wgt id='6'> +6.2259250e+02 </wgt>
<wgt id='7'> +8.7970277e+02 </wgt>
<wgt id='8'> +5.1658864e+02 </wgt>
<wgt id='9'> +6.2259250e+02 </wgt>
<wgt id='10'> +5.0778423e+02 </wgt>
<wgt id='11'> +6.3710924e+02 </wgt>
<wgt id='12'> +9.1402232e+02 </wgt>
<wgt id='13'> +5.2513752e+02 </wgt>
<wgt id='14'> +6.3710924e+02 </wgt>
<wgt id='15'> +5.1588764e+02 </wgt>
<wgt id='16'> +4.8917893e+02 </wgt>
<wgt id='17'> +6.4760175e+02 </wgt>
<wgt id='18'> +4.2359387e+02 </wgt>
<wgt id='19'> +4.8917892e+02 </wgt>
<wgt id='20'> +4.1763113e+02 </wgt>
<wgt id='21'> +6.8208631e+02 </wgt>
<wgt id='22'> +4.3347064e+02 </wgt>
<wgt id='23'> +5.0481800e+02 </wgt>
<wgt id='24'> +4.2704719e+02 </wgt>
<wgt id='25'> +5.1658864e+02 </wgt>
<wgt id='26'> +7.0869632e+02 </wgt>
<wgt id='27'> +4.4064403e+02 </wgt>
<wgt id='28'> +5.1658864e+02 </wgt>
<wgt id='29'> +4.3386216e+02 </wgt>
<wgt id='30'> +4.1047109e+02 </wgt>
<wgt id='31'> +5.1677470e+02 </wgt>
<wgt id='32'> +3.6081560e+02 </wgt>
<wgt id='33'> +4.1047109e+02 </wgt>
<wgt id='34'> +3.5619596e+02 </wgt>
<wgt id='35'> +4.2359387e+02 </wgt>
<wgt id='36'> +5.4429277e+02 </wgt>
<wgt id='37'> +3.6922860e+02 </wgt>
<wgt id='38'> +4.2359387e+02 </wgt>
<wgt id='39'> +3.6422688e+02 </wgt>
<wgt id='40'> +4.3347064e+02 </wgt>
<wgt id='41'> +5.6552708e+02 </wgt>
<wgt id='42'> +3.7533886e+02 </wgt>
<wgt id='43'> +4.3347064e+02 </wgt>
<wgt id='44'> +3.7003934e+02 </wgt>
<wgt id='45'> +5.0481800e+02 </wgt>
<wgt id='46'> +5.0727710e+02 </wgt>
<wgt id='47'> +4.8908331e+02 </wgt>
<wgt id='48'> +4.9380757e+02 </wgt>
<wgt id='49'> +5.0208048e+02 </wgt>
<wgt id='50'> +4.6592735e+02 </wgt>
<wgt id='51'> +5.1413004e+02 </wgt>
<wgt id='52'> +4.9149962e+02 </wgt>
<wgt id='53'> +5.1551130e+02 </wgt>
<wgt id='54'> +4.9508616e+02 </wgt>
<wgt id='55'> +4.8700981e+02 </wgt>
<wgt id='56'> +5.3698239e+02 </wgt>
<wgt id='57'> +4.9527461e+02 </wgt>
<wgt id='58'> +5.1546999e+02 </wgt>
<wgt id='59'> +4.9515383e+02 </wgt>
<wgt id='60'> +5.0398757e+02 </wgt>
<wgt id='61'> +5.4891900e+02 </wgt>
<wgt id='62'> +5.3414746e+02 </wgt>
<wgt id='63'> +5.1769013e+02 </wgt>
<wgt id='64'> +4.9914720e+02 </wgt>
<wgt id='65'> +4.7839702e+02 </wgt>
<wgt id='66'> +5.3284108e+02 </wgt>
<wgt id='67'> +5.1573223e+02 </wgt>
<wgt id='68'> +4.2393345e+02 </wgt>
<wgt id='69'> +4.7393388e+02 </wgt>
<wgt id='70'> +4.9482493e+02 </wgt>
<wgt id='71'> +5.1667721e+02 </wgt>
<wgt id='72'> +5.0867410e+02 </wgt>
<wgt id='73'> +5.1537217e+02 </wgt>
<wgt id='74'> +4.6286931e+02 </wgt>
<wgt id='75'> +4.7399282e+02 </wgt>
<wgt id='76'> +5.2416032e+02 </wgt>
<wgt id='77'> +5.2388946e+02 </wgt>
<wgt id='78'> +5.2024051e+02 </wgt>
<wgt id='79'> +5.1548436e+02 </wgt>
<wgt id='80'> +5.3203247e+02 </wgt>
<wgt id='81'> +5.0009935e+02 </wgt>
<wgt id='82'> +5.0375930e+02 </wgt>
<wgt id='83'> +4.7529069e+02 </wgt>
<wgt id='84'> +5.1258661e+02 </wgt>
<wgt id='85'> +5.0031508e+02 </wgt>
<wgt id='86'> +5.0719145e+02 </wgt>
<wgt id='87'> +5.1323505e+02 </wgt>
<wgt id='88'> +5.0727101e+02 </wgt>
<wgt id='89'> +5.2813305e+02 </wgt>
<wgt id='90'> +5.4843557e+02 </wgt>
<wgt id='91'> +4.8042062e+02 </wgt>
<wgt id='92'> +5.2781624e+02 </wgt>
<wgt id='93'> +4.9591279e+02 </wgt>
<wgt id='94'> +5.1322880e+02 </wgt>
<wgt id='95'> +5.0325480e+02 </wgt>
<wgt id='96'> +4.9560544e+02 </wgt>
<wgt id='97'> +5.1840427e+02 </wgt>
<wgt id='98'> +5.1059470e+02 </wgt>
<wgt id='99'> +5.3268751e+02 </wgt>
<wgt id='100'> +5.3977808e+02 </wgt>
<wgt id='101'> +4.5369377e+02 </wgt>
<wgt id='102'> +4.7652346e+02 </wgt>
<wgt id='103'> +4.9288927e+02 </wgt>
<wgt id='104'> +4.9906243e+02 </wgt>
<wgt id='105'> +4.9313430e+02 </wgt>
<wgt id='106'> +5.2987729e+02 </wgt>
<wgt id='107'> +4.9772899e+02 </wgt>
<wgt id='108'> +5.3754218e+02 </wgt>
<wgt id='109'> +5.2658108e+02 </wgt>
<wgt id='110'> +5.3269352e+02 </wgt>
<wgt id='111'> +5.1951150e+02 </wgt>
<wgt id='112'> +5.1062809e+02 </wgt>
<wgt id='113'> +5.0883994e+02 </wgt>
<wgt id='114'> +5.1073922e+02 </wgt>
<wgt id='115'> +5.1925992e+02 </wgt>
<wgt id='116'> +4.9933685e+02 </wgt>
<wgt id='117'> +5.0162287e+02 </wgt>
<wgt id='118'> +4.7612028e+02 </wgt>
<wgt id='119'> +5.1115011e+02 </wgt>
<wgt id='120'> +4.9869359e+02 </wgt>
<wgt id='121'> +5.1341707e+02 </wgt>
<wgt id='122'> +5.1929954e+02 </wgt>
<wgt id='123'> +5.3760055e+02 </wgt>
<wgt id='124'> +4.8349794e+02 </wgt>
<wgt id='125'> +4.5109512e+02 </wgt>
<wgt id='126'> +5.0221793e+02 </wgt>
<wgt id='127'> +5.0511498e+02 </wgt>
<wgt id='128'> +5.2004794e+02 </wgt>
<wgt id='129'> +4.6802974e+02 </wgt>
<wgt id='130'> +4.9157721e+02 </wgt>
<wgt id='131'> +4.9227724e+02 </wgt>
<wgt id='132'> +4.7517399e+02 </wgt>
<wgt id='133'> +5.1162339e+02 </wgt>
<wgt id='134'> +4.8556289e+02 </wgt>
<wgt id='135'> +4.9280396e+02 </wgt>
<wgt id='136'> +4.9113154e+02 </wgt>
<wgt id='137'> +5.2771797e+02 </wgt>
<wgt id='138'> +5.1069950e+02 </wgt>
<wgt id='139'> +4.9398272e+02 </wgt>
<wgt id='140'> +4.8204967e+02 </wgt>
<wgt id='141'> +4.8326582e+02 </wgt>
<wgt id='142'> +5.4770425e+02 </wgt>
<wgt id='143'> +5.1899265e+02 </wgt>
<wgt id='144'> +5.3382616e+02 </wgt>
<wgt id='145'> +5.2130702e+02 </wgt>
</rwgt>
</event>
<event>
 4      1 +5.0481800e+02 1.78235900e+02 7.54677100e-03 1.16952100e-01
       21 -1    0    0  501  502 +0.0000000000e+00 +0.0000000000e+00 +2.7566607841e+01 2.7566607841e+01 0.0000000000e+00 0.0000e+00 1.0000e+00
       21 -1    0    0  502  503 -0.0000000000e+00 -0.0000000000e+00 -1.3996946482e+03 1.3996946482e+03 0.0000000000e+00 0.0000e+00 1.0000e+00
        6  1    1    2  501    0 -4.1014729195e+01 +1.2522799696e+01 -3.8610936975e+02 4.2526282924e+02 1.7300000000e+02 0.0000e+00 1.0000e+00
       -6  1    1    2    0  503 +4.1014729195e+01 -1.2522799696e+01 -9.8601867058e+02 1.0019984268e+03 1.7300000000e+02 0.0000e+00 1.0000e+00
<mgrwt>
<rscale>  2 0.17823588E+03</rscale>
<asrwt>0</asrwt>
<pdfrwt beam="1">  1       21 0.42410179E-02 0.17823588E+03</pdfrwt>
<pdfrwt beam="2">  1       21 0.21533757E+00 0.17823588E+03</pdfrwt>
<totfact> 0.38580896E+04</totfact>
</mgrwt>
<rwgt>
<wgt id='1'> +6.7567328e+02 </wgt>
<wgt id='2'> +9.1535320e+02 </wgt>
<wgt id='3'> +5.0481800e+02 </wgt>
<wgt id='4'> +6.7567328e+02 </wgt>
<wgt id='5'> +4.8531956e+02 </wgt>
<wgt id='6'> +6.2173243e+02 </wgt>
<wgt id='7'> +8.4750791e+02 </wgt>
<wgt id='8'> +4.5714868e+02 </wgt>
<wgt id='9'> +6.2173244e+02 </wgt>
<wgt id='10'> +4.3926674e+02 </wgt>
<wgt id='11'> +5.6302303e+02 </wgt>
<wgt id='12'> +7.7962657e+02 </wgt>
<wgt id='13'> +4.1460398e+02 </wgt>
<wgt id='14'> +5.6302303e+02 </wgt>
<wgt id='15'> +3.9853427e+02 </wgt>
<wgt id='16'> +5.4861548e+02 </wgt>
<wgt id='17'> +7.2493225e+02 </wgt>
<wgt id='18'> +4.2401575e+02 </wgt>
<wgt id='19'> +5.4861548e+02 </wgt>
<wgt id='20'> +4.0880347e+02 </wgt>
<wgt id='21'> +6.7120081e+02 </wgt>
<wgt id='22'> +3.8397648e+02 </wgt>
<wgt id='23'> +5.0481800e+02 </wgt>
<wgt id='24'> +3.7001140e+02 </wgt>
<wgt id='25'> +4.5714868e+02 </wgt>
<wgt id='26'> +6.1744083e+02 </wgt>
<wgt id='27'> +3.4824158e+02 </wgt>
<wgt id='28'> +4.5714868e+02 </wgt>
<wgt id='29'> +3.3570086e+02 </wgt>
<wgt id='30'> +4.6080291e+02 </wgt>
<wgt id='31'> +5.8905501e+02 </wgt>
<wgt id='32'> +3.6137316e+02 </wgt>
<wgt id='33'> +4.6080291e+02 </wgt>
<wgt id='34'> +3.4902467e+02 </wgt>
<wgt id='35'> +4.2401575e+02 </wgt>
<wgt id='36'> +5.4539470e+02 </wgt>
<wgt id='37'> +3.2724915e+02 </wgt>
<wgt id='38'> +4.2401575e+02 </wgt>
<wgt id='39'> +3.1590511e+02 </wgt>
<wgt id='40'> +3.8397648e+02 </wgt>
<wgt id='41'> +5.0171119e+02 </wgt>
<wgt id='42'> +2.9679360e+02 </wgt>
<wgt id='43'> +3.8397648e+02 </wgt>
<wgt id='44'> +2.8661176e+02 </wgt>
<wgt id='45'> +5.0481800e+02 </wgt>
<wgt id='46'> +5.1739966e+02 </wgt>
<wgt id='47'> +5.2707958e+02 </wgt>
<wgt id='48'> +5.0293624e+02 </wgt>
<wgt id='49'> +4.6108256e+02 </wgt>
<wgt id='50'> +5.8291435e+02 </wgt>
<wgt id='51'> +4.7323450e+02 </wgt>
<wgt id='52'> +4.6232707e+02 </wgt>
<wgt id='53'> +5.1157707e+02 </wgt>
<wgt id='54'> +5.3865128e+02 </wgt>
<wgt id='55'> +5.8407229e+02 </wgt>
<wgt id='56'> +4.8991333e+02 </wgt>
<wgt id='57'> +5.4045242e+02 </wgt>
<wgt id='58'> +4.5300633e+02 </wgt>
<wgt id='59'> +5.5026508e+02 </wgt>
<wgt id='60'> +5.0490145e+02 </wgt>
<wgt id='61'> +4.3108435e+02 </wgt>
<wgt id='62'> +4.5897024e+02 </wgt>
<wgt id='63'> +5.3675470e+02 </wgt>
<wgt id='64'> +5.0817574e+02 </wgt>
<wgt id='65'> +4.4111778e+02 </wgt>
<wgt id='66'> +5.1449316e+02 </wgt>
<wgt id='67'> +5.0820677e+02 </wgt>
<wgt id='68'> +6.2695005e+02 </wgt>
<wgt id='69'> +5.5436300e+02 </wgt>
<wgt id='70'> +5.5959299e+02 </wgt>
<wgt id='71'> +4.6071380e+02 </wgt>
<wgt id='72'> +4.5711223e+02 </wgt>
<wgt id='73'> +4.5456252e+02 </wgt>
<wgt id='74'> +5.9091574e+02 </wgt>
<wgt id='75'> +5.6101488e+02 </wgt>
<wgt id='76'> +5.2127248e+02 </wgt>
<wgt id='77'> +4.7182709e+02 </wgt>
<wgt id='78'> +4.2845820e+02 </wgt>
<wgt id='79'> +5.5113997e+02 </wgt>
<wgt id='80'> +4.3861507e+02 </wgt>
<wgt id='81'> +5.3117069e+02 </wgt>
<wgt id='82'> +4.9878710e+02 </wgt>
<wgt id='83'> +4.9540095e+02 </wgt>
<wgt id='84'> +4.8140608e+02 </wgt>
<wgt id='85'> +4.4701374e+02 </wgt>
<wgt id='86'> +5.3596453e+02 </wgt>
<wgt id='87'> +4.9471896e+02 </wgt>
<wgt id='88'> +4.9181117e+02 </wgt>
<wgt id='89'> +4.1190781e+02 </wgt>
<wgt id='90'> +4.5988147e+02 </wgt>
<wgt id='91'> +4.2663520e+02 </wgt>
<wgt id='92'> +4.7738003e+02 </wgt>
<wgt id='93'> +5.1354925e+02 </wgt>
<wgt id='94'> +4.6034321e+02 </wgt>
<wgt id='95'> +5.3322511e+02 </wgt>
<wgt id='96'> +5.2570477e+02 </wgt>
<wgt id='97'> +4.5015913e+02 </wgt>
<wgt id='98'> +5.5533290e+02 </wgt>
<wgt id='99'> +4.1621621e+02 </wgt>
<wgt id='100'> +3.7413584e+02 </wgt>
<wgt id='101'> +5.9024208e+02 </wgt>
<wgt id='102'> +5.7331706e+02 </wgt>
<wgt id='103'> +4.6956843e+02 </wgt>
<wgt id='104'> +5.4514242e+02 </wgt>
<wgt id='105'> +5.1581122e+02 </wgt>
<wgt id='106'> +4.9967321e+02 </wgt>
<wgt id='107'> +4.9555450e+02 </wgt>
<wgt id='108'> +4.7810693e+02 </wgt>
<wgt id='109'> +5.0391401e+02 </wgt>
<wgt id='110'> +4.5670516e+02 </wgt>
<wgt id='111'> +4.8847098e+02 </wgt>
<wgt id='112'> +5.3256560e+02 </wgt>
<wgt id='113'> +5.4871669e+02 </wgt>
<wgt id='114'> +5.2742512e+02 </wgt>
<wgt id='115'> +4.6241865e+02 </wgt>
<wgt id='116'> +5.5809312e+02 </wgt>
<wgt id='117'> +4.9567622e+02 </wgt>
<wgt id='118'> +5.1533931e+02 </wgt>
<wgt id='119'> +5.6441084e+02 </wgt>
<wgt id='120'> +5.0461761e+02 </wgt>
<wgt id='121'> +4.9351385e+02 </wgt>
<wgt id='122'> +4.9184573e+02 </wgt>
<wgt id='123'> +4.7396302e+02 </wgt>
<wgt id='124'> +5.6659278e+02 </wgt>
<wgt id='125'> +6.4675665e+02 </wgt>
<wgt id='126'> +4.8964674e+02 </wgt>
<wgt id='127'> +4.7566128e+02 </wgt>
<wgt id='128'> +4.9300399e+02 </wgt>
<wgt id='129'> +5.0358388e+02 </wgt>
<wgt id='130'> +5.0175387e+02 </wgt>
<wgt id='131'> +4.5405076e+02 </wgt>
<wgt id='132'> +5.5252139e+02 </wgt>
<wgt id='133'> +5.5510445e+02 </wgt>
<wgt id='134'> +5.3910523e+02 </wgt>
<wgt id='135'> +4.7837952e+02 </wgt>
<wgt id='136'> +6.0533400e+02 </wgt>
<wgt id='137'> +5.4169939e+02 </wgt>
<wgt id='138'> +5.2332591e+02 </wgt>
<wgt id='139'> +5.2116805e+02 </wgt>
<wgt id='140'> +4.8910877e+02 </wgt>
<wgt id='141'> +5.8698565e+02 </wgt>
<wgt id='142'> +3.3266722e+02 </wgt>
<wgt id='143'> +5.1670213e+02 </wgt>
<wgt id='144'> +4.5370259e+02 </wgt>
<wgt id='145'> +4.5898904e+02 </wgt>
</rwgt>
</event>
<event>
 4      1 +5.0481800e+02 2.19143100e+02 7.54677100e-03 1.13452400e-01
       21 -1    0    0  503  502 +0.0000000000e+00 +0.0000000000e+00 +2.4754778968e+03 2.4754778968e+03 0.0000000000e+00 0.0000e+00 1.0000e+00
       21 -1    0    0  501  503 -0.0000000000e+00 -0.0000000000e+00 -2.0002483293e+01 2.0002483293e+01 0.0000000000e+00 0.0000e+00 1.0000e+00
        6  1    1    2  501    0 +1.3442780739e+02 -4.8832010365e+00 +1.4443288114e+03 1.4608591296e+03 1.7300000000e+02 0.0000e+00 1.0000e+00
       -6  1    1    2    0  502 -1.3442780739e+02 +4.8832010365e+00 +1.0111466022e+03 1.0346212506e+03 1.7300000000e+02 0.0000e+00 1.0000e+00
<mgrwt>
<rscale>  2 0.21914306E+03</rscale>
<asrwt>0</asrwt>
<pdfrwt beam="1">  1       21 0.38084251E+00 0.21914306E+03</pdfrwt>
<pdfrwt beam="2">  1       21 0.30773071E-02 0.21914306E+03</pdfrwt>
<totfact> 0.67120200E+03</totfact>
</mgrwt>
<rwgt>
<wgt id='1'> +7.2880033e+02 </wgt>
<wgt id='2'> +6.4783494e+02 </wgt>
<wgt id='3'> +5.0481800e+02 </wgt>
<wgt id='4'> +7.2880033e+02 </wgt>
<wgt id='5'> +5.0091793e+02 </wgt>
<wgt id='6'> +6.1513694e+02 </wgt>
<wgt id='7'> +5.4590576e+02 </wgt>
<wgt id='8'> +4.2641117e+02 </wgt>
<wgt id='9'> +6.1513694e+02 </wgt>
<wgt id='10'> +4.2324818e+02 </wgt>
<wgt id='11'> +5.1959570e+02 </wgt>
<wgt id='12'> +4.6295743e+02 </wgt>
<wgt id='13'> +3.6463629e+02 </wgt>
<wgt id='14'> +5.1959570e+02 </wgt>
<wgt id='15'> +3.6202337e+02 </wgt>
<wgt id='16'> +5.9809694e+02 </wgt>
<wgt id='17'> +5.3767437e+02 </wgt>
<wgt id='18'> +4.2620068e+02 </wgt>
<wgt id='19'> +5.9809694e+02 </wgt>
<wgt id='20'> +4.2302861e+02 </wgt>
<wgt id='21'> +4.5307765e+02 </wgt>
<wgt id='22'> +3.6000446e+02 </wgt>
<wgt id='23'> +5.0481800e+02 </wgt>
<wgt id='24'> +3.5743598e+02 </wgt>
<wgt id='25'> +4.2641117e+02 </wgt>
<wgt id='26'> +3.8423420e+02 </wgt>
<wgt id='27'> +3.0785003e+02 </wgt>
<wgt id='28'> +4.2641117e+02 </wgt>
<wgt id='29'> +3.0573120e+02 </wgt>
<wgt id='30'> +5.0495292e+02 </wgt>
<wgt id='31'> +4.5588182e+02 </wgt>
<wgt id='32'> +3.6458913e+02 </wgt>
<wgt id='33'> +5.0495292e+02 </wgt>
<wgt id='34'> +3.6197233e+02 </wgt>
<wgt id='35'> +4.2620068e+02 </wgt>
<wgt id='36'> +3.8415419e+02 </wgt>
<wgt id='37'> +3.0796223e+02 </wgt>
<wgt id='38'> +4.2620068e+02 </wgt>
<wgt id='39'> +3.0584677e+02 </wgt>
<wgt id='40'> +3.6000446e+02 </wgt>
<wgt id='41'> +3.2578341e+02 </wgt>
<wgt id='42'> +2.6334724e+02 </wgt>
<wgt id='43'> +3.6000446e+02 </wgt>
<wgt id='44'> +2.6160461e+02 </wgt>
<wgt id='45'> +5.0481800e+02 </wgt>
<wgt id='46'> +5.0784148e+02 </wgt>
<wgt id='47'> +6.3657714e+02 </wgt>
<wgt id='48'> +4.9813045e+02 </wgt>
<wgt id='49'> +4.2618754e+02 </wgt>
<wgt id='50'> +6.4990484e+02 </wgt>
<wgt id='51'> +5.1565515e+02 </wgt>
<wgt id='52'> +3.8553202e+02 </wgt>
<wgt id='53'> +6.0067927e+02 </wgt>
<wgt id='54'> +5.2530531e+02 </wgt>
<wgt id='55'> +6.5259913e+02 </wgt>
<wgt id='56'> +4.8400194e+02 </wgt>
<wgt id='57'> +5.8112643e+02 </wgt>
<wgt id='58'> +4.0295481e+02 </wgt>
<wgt id='59'> +5.6270860e+02 </wgt>
<wgt id='60'> +4.9254833e+02 </wgt>
<wgt id='61'> +3.7262572e+02 </wgt>
<wgt id='62'> +4.2126656e+02 </wgt>
<wgt id='63'> +5.4037761e+02 </wgt>
<wgt id='64'> +5.0787387e+02 </wgt>
<wgt id='65'> +3.5518262e+02 </wgt>
<wgt id='66'> +5.0842087e+02 </wgt>
<wgt id='67'> +4.7200375e+02 </wgt>
<wgt id='68'> +8.4724391e+02 </wgt>
<wgt id='69'> +6.0966731e+02 </wgt>
<wgt id='70'> +7.6131153e+02 </wgt>
<wgt id='71'> +4.2218682e+02 </wgt>
<wgt id='72'> +3.8668763e+02 </wgt>
<wgt id='73'> +4.0247918e+02 </wgt>
<wgt id='74'> +7.4287633e+02 </wgt>
<wgt id='75'> +6.6515892e+02 </wgt>
<wgt id='76'> +4.8463467e+02 </wgt>
<wgt id='77'> +4.0806951e+02 </wgt>
<wgt id='78'> +4.0686496e+02 </wgt>
<wgt id='79'> +5.8073645e+02 </wgt>
<wgt id='80'> +3.2030863e+02 </wgt>
<wgt id='81'> +5.6831437e+02 </wgt>
<wgt id='82'> +4.7289902e+02 </wgt>
<wgt id='83'> +5.0518421e+02 </wgt>
<wgt id='84'> +3.8597306e+02 </wgt>
<wgt id='85'> +4.1434469e+02 </wgt>
<wgt id='86'> +5.3744761e+02 </wgt>
<wgt id='87'> +4.4988000e+02 </wgt>
<wgt id='88'> +5.7048006e+02 </wgt>
<wgt id='89'> +2.6570168e+02 </wgt>
<wgt id='90'> +3.8347175e+02 </wgt>
<wgt id='91'> +3.4618122e+02 </wgt>
<wgt id='92'> +4.5842670e+02 </wgt>
<wgt id='93'> +5.6115801e+02 </wgt>
<wgt id='94'> +3.8653418e+02 </wgt>
<wgt id='95'> +5.2294954e+02 </wgt>
<wgt id='96'> +4.4867560e+02 </wgt>
<wgt id='97'> +4.0653538e+02 </wgt>
<wgt id='98'> +6.7266725e+02 </wgt>
<wgt id='99'> +3.6182460e+02 </wgt>
<wgt id='100'> +2.9681493e+02 </wgt>
<wgt id='101'> +6.6007466e+02 </wgt>
<wgt id='102'> +6.4145980e+02 </wgt>
<wgt id='103'> +4.0877296e+02 </wgt>
<wgt id='104'> +5.7015797e+02 </wgt>
<wgt id='105'> +5.3185006e+02 </wgt>
<wgt id='106'> +5.2043969e+02 </wgt>
<wgt id='107'> +5.4266741e+02 </wgt>
<wgt id='108'> +4.5347553e+02 </wgt>
<wgt id='109'> +5.2934629e+02 </wgt>
<wgt id='110'> +3.3767101e+02 </wgt>
<wgt id='111'> +4.6454374e+02 </wgt>
<wgt id='112'> +5.1699205e+02 </wgt>
<wgt id='113'> +6.6448439e+02 </wgt>
<wgt id='114'> +3.7245725e+02 </wgt>
<wgt id='115'> +4.8881859e+02 </wgt>
<wgt id='116'> +6.1279283e+02 </wgt>
<wgt id='117'> +5.4530119e+02 </wgt>
<wgt id='118'> +5.0413502e+02 </wgt>
<wgt id='119'> +5.2253578e+02 </wgt>
<wgt id='120'> +4.6378933e+02 </wgt>
<wgt id='121'> +4.4651393e+02 </wgt>
<wgt id='122'> +4.4744472e+02 </wgt>
<wgt id='123'> +4.2585116e+02 </wgt>
<wgt id='124'> +5.7609057e+02 </wgt>
<wgt id='125'> +8.3277535e+02 </wgt>
<wgt id='126'> +4.7089282e+02 </wgt>
<wgt id='127'> +4.5238763e+02 </wgt>
<wgt id='128'> +5.0493080e+02 </wgt>
<wgt id='129'> +4.6257793e+02 </wgt>
<wgt id='130'> +4.4079035e+02 </wgt>
<wgt id='131'> +4.1363448e+02 </wgt>
<wgt id='132'> +5.3178402e+02 </wgt>
<wgt id='133'> +5.5293229e+02 </wgt>
<wgt id='134'> +6.1760081e+02 </wgt>
<wgt id='135'> +4.7523566e+02 </wgt>
<wgt id='136'> +6.5852470e+02 </wgt>
<wgt id='137'> +6.0917923e+02 </wgt>
<wgt id='138'> +6.1936413e+02 </wgt>
<wgt id='139'> +5.4725395e+02 </wgt>
<wgt id='140'> +4.6593614e+02 </wgt>
<wgt id='141'> +7.4809811e+02 </wgt>
<wgt id='142'> +2.0663084e+02 </wgt>
<wgt id='143'> +5.3119713e+02 </wgt>
<wgt id='144'> +4.1933634e+02 </wgt>
<wgt id='145'> +4.2067454e+02 </wgt>
</rwgt>
</event>
<event>
 4      1 +5.0481800e+02 2.01835300e+02 7.54677100e-03 1.14820000e-01
       21 -1    0    0  503  502 +0.0000000000e+00 +0.0000000000e+00 +1.1444044655e+03 1.1444044655e+03 0.0000000000e+00 0.0000e+00 1.0000e+00
       21 -1    0    0  501  503 -0.0000000000e+00 -0.0000000000e+00 -4.4246842503e+01 4.4246842503e+01 0.0000000000e+00 0.0000e+00 -1.0000e+00
        6  1    1    2  501    0 +3.5274200084e+00 +1.0390398191e+02 +2.8730327871e+02 3.5111344905e+02 1.7300000000e+02 0.0000e+00 -1.0000e+00
       -6  1    1    2    0  502 -3.5274200084e+00 -1.0390398191e+02 +8.1285434431e+02 8.3753785897e+02 1.7300000000e+02 0.0000e+00 1.0000e+00
<mgrwt>
<rscale>  2 0.20183528E+03</rscale>
<asrwt>0</asrwt>
<pdfrwt beam="1">  1       21 0.17606220E+00 0.20183528E+03</pdfrwt>
<pdfrwt beam="2">  1       21 0.68072074E-02 0.20183528E+03</pdfrwt>
<totfact> 0.30547351E+04</totfact>
</mgrwt>
<rwgt>
<wgt id='1'> +6.6840621e+02 </wgt>
<wgt id='2'> +6.3795647e+02 </wgt>
<wgt id='3'> +5.0481800e+02 </wgt>
<wgt id='4'> +6.6840621e+02 </wgt>
<wgt id='5'> +4.8384233e+02 </wgt>
<wgt id='6'> +6.1798485e+02 </wgt>
<wgt id='7'> +5.8790317e+02 </wgt>
<wgt id='8'> +4.6005070e+02 </wgt>
<wgt id='9'> +6.1798485e+02 </wgt>
<wgt id='10'> +4.4107787e+02 </wgt>
<wgt id='11'> +5.6318191e+02 </wgt>
<wgt id='12'> +5.3594730e+02 </wgt>
<wgt id='13'> +4.2002725e+02 </wgt>
<wgt id='14'> +5.6318191e+02 </wgt>
<wgt id='15'> +4.0284093e+02 </wgt>
<wgt id='16'> +5.4600608e+02 </wgt>
<wgt id='17'> +5.2440042e+02 </wgt>
<wgt id='18'> +4.2550367e+02 </wgt>
<wgt id='19'> +5.4600608e+02 </wgt>
<wgt id='20'> +4.0869421e+02 </wgt>
<wgt id='21'> +4.8325659e+02 </wgt>
<wgt id='22'> +3.8776997e+02 </wgt>
<wgt id='23'> +5.0481800e+02 </wgt>
<wgt id='24'> +3.7257173e+02 </wgt>
<wgt id='25'> +4.6005070e+02 </wgt>
<wgt id='26'> +4.4054885e+02 </wgt>
<wgt id='27'> +3.5403479e+02 </wgt>
<wgt id='28'> +4.6005070e+02 </wgt>
<wgt id='29'> +3.4027357e+02 </wgt>
<wgt id='30'> +4.6022050e+02 </wgt>
<wgt id='31'> +4.4297926e+02 </wgt>
<wgt id='32'> +3.6346090e+02 </wgt>
<wgt id='33'> +4.6022050e+02 </wgt>
<wgt id='34'> +3.4977506e+02 </wgt>
<wgt id='35'> +4.2550367e+02 </wgt>
<wgt id='36'> +4.0822364e+02 </wgt>
<wgt id='37'> +3.3122916e+02 </wgt>
<wgt id='38'> +4.2550367e+02 </wgt>
<wgt id='39'> +3.1886016e+02 </wgt>
<wgt id='40'> +3.8776997e+02 </wgt>
<wgt id='41'> +3.7214692e+02 </wgt>
<wgt id='42'> +3.0241291e+02 </wgt>
<wgt id='43'> +3.8776997e+02 </wgt>
<wgt id='44'> +2.9121824e+02 </wgt>
<wgt id='45'> +5.0481800e+02 </wgt>
<wgt id='46'> +5.1882373e+02 </wgt>
<wgt id='47'> +5.1900196e+02 </wgt>
<wgt id='48'> +5.0413079e+02 </wgt>
<wgt id='49'> +4.7287333e+02 </wgt>
<wgt id='50'> +5.9101469e+02 </wgt>
<wgt id='51'> +4.7894154e+02 </wgt>
<wgt id='52'> +4.8183745e+02 </wgt>
<wgt id='53'> +5.0226728e+02 </wgt>
<wgt id='54'> +5.3163872e+02 </wgt>
<wgt id='55'> +5.4708900e+02 </wgt>
<wgt id='56'> +4.7791003e+02 </wgt>
<wgt id='57'> +5.3229893e+02 </wgt>
<wgt id='58'> +4.6660105e+02 </wgt>
<wgt id='59'> +5.4621145e+02 </wgt>
<wgt id='60'> +5.0806502e+02 </wgt>
<wgt id='61'> +4.5146411e+02 </wgt>
<wgt id='62'> +4.7286044e+02 </wgt>
<wgt id='63'> +5.2638533e+02 </wgt>
<wgt id='64'> +5.0419423e+02 </wgt>
<wgt id='65'> +4.8236045e+02 </wgt>
<wgt id='66'> +5.0697656e+02 </wgt>
<wgt id='67'> +5.0732931e+02 </wgt>
<wgt id='68'> +5.9591249e+02 </wgt>
<wgt id='69'> +5.3292759e+02 </wgt>
<wgt id='70'> +5.3020460e+02 </wgt>
<wgt id='71'> +4.8027763e+02 </wgt>
<wgt id='72'> +4.7217984e+02 </wgt>
<wgt id='73'> +4.6417930e+02 </wgt>
<wgt id='74'> +5.6607014e+02 </wgt>
<wgt id='75'> +5.3769602e+02 </wgt>
<wgt id='76'> +5.1608288e+02 </wgt>
<wgt id='77'> +4.8398143e+02 </wgt>
<wgt id='78'> +4.4579925e+02 </wgt>
<wgt id='79'> +5.3051377e+02 </wgt>
<wgt id='80'> +4.5890784e+02 </wgt>
<wgt id='81'> +5.1530585e+02 </wgt>
<wgt id='82'> +4.9086561e+02 </wgt>
<wgt id='83'> +4.9852133e+02 </wgt>
<wgt id='84'> +5.0276574e+02 </wgt>
<wgt id='85'> +4.6922868e+02 </wgt>
<wgt id='86'> +5.2290426e+02 </wgt>
<wgt id='87'> +5.0145884e+02 </wgt>
<wgt id='88'> +4.9307959e+02 </wgt>
<wgt id='89'> +4.5238526e+02 </wgt>
<wgt id='90'> +4.8396883e+02 </wgt>
<wgt id='91'> +4.5844033e+02 </wgt>
<wgt id='92'> +4.7268941e+02 </wgt>
<wgt id='93'> +5.0830496e+02 </wgt>
<wgt id='94'> +4.6955666e+02 </wgt>
<wgt id='95'> +5.2690839e+02 </wgt>
<wgt id='96'> +5.2772574e+02 </wgt>
<wgt id='97'> +4.6754105e+02 </wgt>
<wgt id='98'> +5.2990940e+02 </wgt>
<wgt id='99'> +4.3823189e+02 </wgt>
<wgt id='100'> +4.0651077e+02 </wgt>
<wgt id='101'> +5.8156241e+02 </wgt>
<wgt id='102'> +5.5733392e+02 </wgt>
<wgt id='103'> +4.9713588e+02 </wgt>
<wgt id='104'> +5.3137083e+02 </wgt>
<wgt id='105'> +5.1855166e+02 </wgt>
<wgt id='106'> +4.8482002e+02 </wgt>
<wgt id='107'> +4.8481765e+02 </wgt>
<wgt id='108'> +4.6735415e+02 </wgt>
<wgt id='109'> +4.9604654e+02 </wgt>
<wgt id='110'> +4.7457206e+02 </wgt>
<wgt id='111'> +4.9223128e+02 </wgt>
<wgt id='112'> +5.1578819e+02 </wgt>
<wgt id='113'> +5.1450921e+02 </wgt>
<wgt id='114'> +5.1800224e+02 </wgt>
<wgt id='115'> +4.6412477e+02 </wgt>
<wgt id='116'> +5.4598429e+02 </wgt>
<wgt id='117'> +4.9335842e+02 </wgt>
<wgt id='118'> +5.2322413e+02 </wgt>
<wgt id='119'> +5.3958509e+02 </wgt>
<wgt id='120'> +5.0339520e+02 </wgt>
<wgt id='121'> +5.0069647e+02 </wgt>
<wgt id='122'> +4.9627110e+02 </wgt>
<wgt id='123'> +4.8809964e+02 </wgt>
<wgt id='124'> +5.6747016e+02 </wgt>
<wgt id='125'> +6.1419819e+02 </wgt>
<wgt id='126'> +4.9938888e+02 </wgt>
<wgt id='127'> +4.9152550e+02 </wgt>
<wgt id='128'> +4.7860124e+02 </wgt>
<wgt id='129'> +5.2660709e+02 </wgt>
<wgt id='130'> +4.8606750e+02 </wgt>
<wgt id='131'> +4.7831977e+02 </wgt>
<wgt id='132'> +5.5183852e+02 </wgt>
<wgt id='133'> +5.4372928e+02 </wgt>
<wgt id='134'> +5.2283489e+02 </wgt>
<wgt id='135'> +4.8927072e+02 </wgt>
<wgt id='136'> +5.8215798e+02 </wgt>
<wgt id='137'> +5.1561735e+02 </wgt>
<wgt id='138'> +5.0545884e+02 </wgt>
<wgt id='139'> +5.2039649e+02 </wgt>
<wgt id='140'> +4.9678175e+02 </wgt>
<wgt id='141'> +5.5584829e+02 </wgt>
<wgt id='142'> +3.8591392e+02 </wgt>
<wgt id='143'> +5.1940957e+02 </wgt>
<wgt id='144'> +4.6827039e+02 </wgt>
<wgt id='145'> +4.7270254e+02 </wgt>
</rwgt>
</event>
<event>
 4      1 +5.0481800e+02 2.12189500e+02 7.54677100e-03 1.13984400e-01
       21 -1    0    0  501  502 +0.0000000000e+00 +0.0000000000e+00 +5.0954218282e+02 5.0954218282e+02 0.0000000000e+00 0.0000e+00 1.0000e+00
       21 -1    0    0  502  503 -0.0000000000e+00 -0.0000000000e+00 -9.1040010165e+01 9.1040010165e+01 0.0000000000e+00 0.0000e+00 1.0000e+00
        6  1    1    2  501    0 -9.5709376613e+01 +7.7039573333e+01 +2.6075002951e+02 3.3617697500e+02 1.7300000000e+02 0.0000e+00 1.0000e+00
       -6  1    1    2    0  503 +9.5709376613e+01 -7.7039573333e+01 +1.5775214315e+02 2.6440521799e+02 1.7300000000e+02 0.0000e+00 1.0000e+00
<mgrwt>
<rscale>  2 0.21218949E+03</rscale>
<asrwt>0</asrwt>
<pdfrwt beam="1">  1       21 0.78391103E-01 0.21218949E+03</pdfrwt>
<pdfrwt beam="2">  1       21 0.14006156E-01 0.21218949E+03</pdfrwt>
<totfact> 0.63392761E+04</totfact>
</mgrwt>
<rwgt>
<wgt id='1'> +6.4878030e+02 </wgt>
<wgt id='2'> +5.6732002e+02 </wgt>
<wgt id='3'> +5.0481800e+02 </wgt>
<wgt id='4'> +6.4878030e+02 </wgt>
<wgt id='5'> +5.0218230e+02 </wgt>
<wgt id='6'> +6.1625686e+02 </wgt>
<wgt id='7'> +5.3291674e+02 </wgt>
<wgt id='8'> +4.7234630e+02 </wgt>
<wgt id='9'> +6.1625686e+02 </wgt>
<wgt id='10'> +4.6988451e+02 </wgt>
<wgt id='11'> +5.7661702e+02 </wgt>
<wgt id='12'> +4.9858316e+02 </wgt>
<wgt id='13'> +4.4192032e+02 </wgt>
<wgt id='14'> +5.7661702e+02 </wgt>
<wgt id='15'> +4.3961932e+02 </wgt>
<wgt id='16'> +5.3146017e+02 </wgt>
<wgt id='17'> +4.7365146e+02 </wgt>
<wgt id='18'> +4.2594208e+02 </wgt>
<wgt id='19'> +5.3146017e+02 </wgt>
<wgt id='20'> +4.2383832e+02 </wgt>
<wgt id='21'> +4.4492840e+02 </wgt>
<wgt id='22'> +3.9854396e+02 </wgt>
<wgt id='23'> +5.0481800e+02 </wgt>
<wgt id='24'> +3.9657921e+02 </wgt>
<wgt id='25'> +4.7234630e+02 </wgt>
<wgt id='26'> +4.1626354e+02 </wgt>
<wgt id='27'> +3.7287192e+02 </wgt>
<wgt id='28'> +4.7234630e+02 </wgt>
<wgt id='29'> +3.7103561e+02 </wgt>
<wgt id='30'> +4.4842151e+02 </wgt>
<wgt id='31'> +4.0251309e+02 </wgt>
<wgt id='32'> +3.6416146e+02 </wgt>
<wgt id='33'> +4.4842151e+02 </wgt>
<wgt id='34'> +3.6245827e+02 </wgt>
<wgt id='35'> +4.2594208e+02 </wgt>
<wgt id='36'> +3.7810400e+02 </wgt>
<wgt id='37'> +3.4073729e+02 </wgt>
<wgt id='38'> +4.2594208e+02 </wgt>
<wgt id='39'> +3.3914681e+02 </wgt>
<wgt id='40'> +3.9854396e+02 </wgt>
<wgt id='41'> +3.5374435e+02 </wgt>
<wgt id='42'> +3.1878885e+02 </wgt>
<wgt id='43'> +3.9854396e+02 </wgt>
<wgt id='44'> +3.1730242e+02 </wgt>
<wgt id='45'> +5.0481800e+02 </wgt>
<wgt id='46'> +5.1049264e+02 </wgt>
<wgt id='47'> +5.2069087e+02 </wgt>
<wgt id='48'> +5.0758865e+02 </wgt>
<wgt id='49'> +5.0015947e+02 </wgt>
<wgt id='50'> +5.9174409e+02 </wgt>
<wgt id='51'> +4.9402110e+02 </wgt>
<wgt id='52'> +5.0348662e+02 </wgt>
<wgt id='53'> +5.0375564e+02 </wgt>
<wgt id='54'> +5.1011859e+02 </wgt>
<wgt id='55'> +4.6740316e+02 </wgt>
<wgt id='56'> +4.6606643e+02 </wgt>
<wgt id='57'> +5.0022746e+02 </wgt>
<wgt id='58'> +5.0139018e+02 </wgt>
<wgt id='59'> +5.1193223e+02 </wgt>
<wgt id='60'> +4.9599343e+02 </wgt>
<wgt id='61'> +4.6349769e+02 </wgt>
<wgt id='62'> +4.9679995e+02 </wgt>
<wgt id='63'> +5.0606089e+02 </wgt>
<wgt id='64'> +4.9729086e+02 </wgt>
<wgt id='65'> +5.7323391e+02 </wgt>
<wgt id='66'> +4.9486289e+02 </wgt>
<wgt id='67'> +5.0850315e+02 </wgt>
<wgt id='68'> +5.4860811e+02 </wgt>
<wgt id='69'> +4.9830226e+02 </wgt>
<wgt id='70'> +4.9795708e+02 </wgt>
<wgt id='71'> +5.1197962e+02 </wgt>
<wgt id='72'> +4.8943300e+02 </wgt>
<wgt id='73'> +4.9387986e+02 </wgt>
<wgt id='74'> +5.2669531e+02 </wgt>
<wgt id='75'> +5.1577443e+02 </wgt>
<wgt id='76'> +4.9533016e+02 </wgt>
<wgt id='77'> +4.9169441e+02 </wgt>
<wgt id='78'> +4.9314130e+02 </wgt>
<wgt id='79'> +4.9290278e+02 </wgt>
<wgt id='80'> +4.9544994e+02 </wgt>
<wgt id='81'> +4.9600343e+02 </wgt>
<wgt id='82'> +5.0674369e+02 </wgt>
<wgt id='83'> +5.1209648e+02 </wgt>
<wgt id='84'> +5.4571596e+02 </wgt>
<wgt id='85'> +5.2092356e+02 </wgt>
<wgt id='86'> +5.0440036e+02 </wgt>
<wgt id='87'> +5.0668386e+02 </wgt>
<wgt id='88'> +5.0914140e+02 </wgt>
<wgt id='89'> +5.1350199e+02 </wgt>
<wgt id='90'> +5.1294374e+02 </wgt>
<wgt id='91'> +5.2540397e+02 </wgt>
<wgt id='92'> +4.6525128e+02 </wgt>
<wgt id='93'> +4.9967336e+02 </wgt>
<wgt id='94'> +4.9674116e+02 </wgt>
<wgt id='95'> +4.9279052e+02 </wgt>
<wgt id='96'> +5.4086723e+02 </wgt>
<wgt id='97'> +5.0532810e+02 </wgt>
<wgt id='98'> +4.8873323e+02 </wgt>
<wgt id='99'> +4.8467707e+02 </wgt>
<wgt id='100'> +4.8555934e+02 </wgt>
<wgt id='101'> +5.4349280e+02 </wgt>
<wgt id='102'> +5.0567476e+02 </wgt>
<wgt id='103'> +5.4408478e+02 </wgt>
<wgt id='104'> +5.0644174e+02 </wgt>
<wgt id='105'> +5.2265783e+02 </wgt>
<wgt id='106'> +4.6453928e+02 </wgt>
<wgt id='107'> +4.9007797e+02 </wgt>
<wgt id='108'> +4.5075212e+02 </wgt>
<wgt id='109'> +4.7614152e+02 </wgt>
<wgt id='110'> +5.0305445e+02 </wgt>
<wgt id='111'> +4.9188212e+02 </wgt>
<wgt id='112'> +4.8030035e+02 </wgt>
<wgt id='113'> +4.6769573e+02 </wgt>
<wgt id='114'> +4.9857990e+02 </wgt>
<wgt id='115'> +4.9026748e+02 </wgt>
<wgt id='116'> +5.1328318e+02 </wgt>
<wgt id='117'> +5.0433976e+02 </wgt>
<wgt id='118'> +5.2299310e+02 </wgt>
<wgt id='119'> +4.9027617e+02 </wgt>
<wgt id='120'> +4.9599051e+02 </wgt>
<wgt id='121'> +4.9397113e+02 </wgt>
<wgt id='122'> +4.9939107e+02 </wgt>
<wgt id='123'> +5.0879242e+02 </wgt>
<wgt id='124'> +5.4778655e+02 </wgt>
<wgt id='125'> +5.5113385e+02 </wgt>
<wgt id='126'> +5.2103276e+02 </wgt>
<wgt id='127'> +5.1807256e+02 </wgt>
<wgt id='128'> +4.6407892e+02 </wgt>
<wgt id='129'> +5.6618432e+02 </wgt>
<wgt id='130'> +5.0242959e+02 </wgt>
<wgt id='131'> +5.3137068e+02 </wgt>
<wgt id='132'> +5.1651228e+02 </wgt>
<wgt id='133'> +5.1048796e+02 </wgt>
<wgt id='134'> +4.8488861e+02 </wgt>
<wgt id='135'> +5.1409204e+02 </wgt>
<wgt id='136'> +5.0472154e+02 </wgt>
<wgt id='137'> +4.8053530e+02 </wgt>
<wgt id='138'> +4.6755316e+02 </wgt>
<wgt id='139'> +5.1718917e+02 </wgt>
<wgt id='140'> +5.2646330e+02 </wgt>
<wgt id='141'> +5.0857404e+02 </wgt>
<wgt id='142'> +4.8931391e+02 </wgt>
<wgt id='143'> +5.0889916e+02 </wgt>
<wgt id='144'> +4.9979189e+02 </wgt>
<wgt id='145'> +5.0378870e+02 </wgt>
</rwgt>
</event>
<event>
 4      1 +5.0481800e+02 2.05647700e+02 7.54677100e-03 1.14506000e-01
       21 -1    0    0  501  502 +0.0000000000e+00 +0.0000000000e+00 +9.9750401094e+01 9.9750401094e+01 0.0000000000e+00 0.0000e+00 -1.0000e+00
       21 -1    0    0  502  503 -0.0000000000e+00 -0.0000000000e+00 -4.9701190568e+02 4.9701190568e+02 0.0000000000e+00 0.0000e+00 1.0000e+00
        6  1    1    2  501    0 +4.1669598922e+01 -1.0308069382e+02 -8.4242932815e+01 2.2223378825e+02 1.7300000000e+02 0.0000e+00 1.0000e+00
       -6  1    1    2    0  503 -4.1669598922e+01 +1.0308069382e+02 -3.1301857177e+02 3.7452851852e+02 1.7300000000e+02 0.0000e+00 1.0000e+00
<mgrwt>
<rscale>  2 0.20564772E+03</rscale>
<asrwt>0</asrwt>
<pdfrwt beam="1">  1       21 0.15346215E-01 0.20564772E+03</pdfrwt>
<pdfrwt beam="2">  1       21 0.76463370E-01 0.20564772E+03</pdfrwt>
<totfact> 0.56941237E+04</totfact>
</mgrwt>
<rwgt>
<wgt id='1'> +6.5039836e+02 </wgt>
<wgt id='2'> +5.6371125e+02 </wgt>
<wgt id='3'> +5.0481800e+02 </wgt>
<wgt id='4'> +6.5039836e+02 </wgt>
<wgt id='5'> +4.9085130e+02 </wgt>
<wgt id='6'> +6.1734703e+02 </wgt>
<wgt id='7'> +5.2883088e+02 </wgt>
<wgt id='8'> +4.7163702e+02 </wgt>
<wgt id='9'> +6.1734703e+02 </wgt>
<wgt id='10'> +4.5861264e+02 </wgt>
<wgt id='11'> +5.7676967e+02 </wgt>
<wgt id='12'> +4.9406540e+02 </wgt>
<wgt id='13'> +4.4066377e+02 </wgt>
<wgt id='14'> +5.7676967e+02 </wgt>
<wgt id='15'> +4.2851398e+02 </wgt>
<wgt id='16'> +5.3184479e+02 </wgt>
<wgt id='17'> +4.7039644e+02 </wgt>
<wgt id='18'> +4.2567590e+02 </wgt>
<wgt id='19'> +5.3184479e+02 </wgt>
<wgt id='20'> +4.1453208e+02 </wgt>
<wgt id='21'> +4.4129005e+02 </wgt>
<wgt id='22'> +3.9769682e+02 </wgt>
<wgt id='23'> +5.0481800e+02 </wgt>
<wgt id='24'> +3.8730599e+02 </wgt>
<wgt id='25'> +4.7163702e+02 </wgt>
<wgt id='26'> +4.1227953e+02 </wgt>
<wgt id='27'> +3.7157935e+02 </wgt>
<wgt id='28'> +4.7163702e+02 </wgt>
<wgt id='29'> +3.6188718e+02 </wgt>
<wgt id='30'> +4.4846560e+02 </wgt>
<wgt id='31'> +3.9966520e+02 </wgt>
<wgt id='32'> +3.6373063e+02 </wgt>
<wgt id='33'> +4.4846560e+02 </wgt>
<wgt id='34'> +3.5470595e+02 </wgt>
<wgt id='35'> +4.2567590e+02 </wgt>
<wgt id='36'> +3.7493539e+02 </wgt>
<wgt id='37'> +3.3982312e+02 </wgt>
<wgt id='38'> +4.2567590e+02 </wgt>
<wgt id='39'> +3.3140919e+02 </wgt>
<wgt id='40'> +3.9769682e+02 </wgt>
<wgt id='41'> +3.5028704e+02 </wgt>
<wgt id='42'> +3.1750633e+02 </wgt>
<wgt id='43'> +3.9769682e+02 </wgt>
<wgt id='44'> +3.0965887e+02 </wgt>
<wgt id='45'> +5.0481800e+02 </wgt>
<wgt id='46'> +5.1028306e+02 </wgt>
<wgt id='47'> +5.2127115e+02 </wgt>
<wgt id='48'> +5.0773970e+02 </wgt>
<wgt id='49'> +5.0054355e+02 </wgt>
<wgt id='50'> +5.9324343e+02 </wgt>
<wgt id='51'> +4.9410249e+02 </wgt>
<wgt id='52'> +5.0347547e+02 </wgt>
<wgt id='53'> +5.0423668e+02 </wgt>
<wgt id='54'> +5.0985261e+02 </wgt>
<wgt id='55'> +4.6512752e+02 </wgt>
<wgt id='56'> +4.6568160e+02 </wgt>
<wgt id='57'> +4.9917889e+02 </wgt>
<wgt id='58'> +5.0177176e+02 </wgt>
<wgt id='59'> +5.1073845e+02 </wgt>
<wgt id='60'> +4.9490335e+02 </wgt>
<wgt id='61'> +4.6534613e+02 </wgt>
<wgt id='62'> +4.9703434e+02 </wgt>
<wgt id='63'> +5.0589134e+02 </wgt>
<wgt id='64'> +4.9715493e+02 </wgt>
<wgt id='65'> +5.7644405e+02 </wgt>
<wgt id='66'> +4.9459114e+02 </wgt>
<wgt id='67'> +5.0860263e+02 </wgt>
<wgt id='68'> +5.4837381e+02 </wgt>
<wgt id='69'> +4.9807644e+02 </wgt>
<wgt id='70'> +4.9753494e+02 </wgt>
<wgt id='71'> +5.1235717e+02 </wgt>
<wgt id='72'> +4.8882004e+02 </wgt>
<wgt id='73'> +4.9413118e+02 </wgt>
<wgt id='74'> +5.2642150e+02 </wgt>
<wgt id='75'> +5.1593229e+02 </wgt>
<wgt id='76'> +4.9455977e+02 </wgt>
<wgt id='77'> +4.9126883e+02 </wgt>
<wgt id='78'> +4.9404033e+02 </wgt>
<wgt id='79'> +4.9197714e+02 </wgt>
<wgt id='80'> +4.9583293e+02 </wgt>
<wgt id='81'> +4.9565231e+02 </wgt>
<wgt id='82'> +5.0779967e+02 </wgt>
<wgt id='83'> +5.1277892e+02 </wgt>
<wgt id='84'> +5.4731059e+02 </wgt>
<wgt id='85'> +5.2228040e+02 </wgt>
<wgt id='86'> +5.0429426e+02 </wgt>
<wgt id='87'> +5.0665254e+02 </wgt>
<wgt id='88'> +5.0981777e+02 </wgt>
<wgt id='89'> +5.1426324e+02 </wgt>
<wgt id='90'> +5.1295692e+02 </wgt>
<wgt id='91'> +5.2684060e+02 </wgt>
<wgt id='92'> +4.6415537e+02 </wgt>
<wgt id='93'> +4.9943927e+02 </wgt>
<wgt id='94'> +4.9705505e+02 </wgt>
<wgt id='95'> +4.9156542e+02 </wgt>
<wgt id='96'> +5.4215964e+02 </wgt>
<wgt id='97'> +5.0599620e+02 </wgt>
<wgt id='98'> +4.8785275e+02 </wgt>
<wgt id='99'> +4.8506511e+02 </wgt>
<wgt id='100'> +4.8656687e+02 </wgt>
<wgt id='101'> +5.4301798e+02 </wgt>
<wgt id='102'> +5.0455818e+02 </wgt>
<wgt id='103'> +5.4526199e+02 </wgt>
<wgt id='104'> +5.0636042e+02 </wgt>
<wgt id='105'> +5.2273801e+02 </wgt>
<wgt id='106'> +4.6356030e+02 </wgt>
<wgt id='107'> +4.9023329e+02 </wgt>
<wgt id='108'> +4.4988576e+02 </wgt>
<wgt id='109'> +4.7530342e+02 </wgt>
<wgt id='110'> +5.0325021e+02 </wgt>
<wgt id='111'> +4.9157476e+02 </wgt>
<wgt id='112'> +4.7979861e+02 </wgt>
<wgt id='113'> +4.6655458e+02 </wgt>
<wgt id='114'> +4.9843691e+02 </wgt>
<wgt id='115'> +4.9128799e+02 </wgt>
<wgt id='116'> +5.1289231e+02 </wgt>
<wgt id='117'> +5.0493500e+02 </wgt>
<wgt id='118'> +5.2305072e+02 </wgt>
<wgt id='119'> +4.8930975e+02 </wgt>
<wgt id='120'> +4.9626694e+02 </wgt>
<wgt id='121'> +4.9331700e+02 </wgt>
<wgt id='122'> +4.9919233e+02 </wgt>
<wgt id='123'> +5.0931693e+02 </wgt>
<wgt id='124'> +5.4776374e+02 </wgt>
<wgt id='125'> +5.5070879e+02 </wgt>
<wgt id='126'> +5.2176751e+02 </wgt>
<wgt id='127'> +5.1861964e+02 </wgt>
<wgt id='128'> +4.6394421e+02 </wgt>
<wgt id='129'> +5.6750475e+02 </wgt>
<wgt id='130'> +5.0325112e+02 </wgt>
<wgt id='131'> +5.3264357e+02 </wgt>
<wgt id='132'> +5.1506504e+02 </wgt>
<wgt id='133'> +5.0988006e+02 </wgt>
<wgt id='134'> +4.8362568e+02 </wgt>
<wgt id='135'> +5.1462358e+02 </wgt>
<wgt id='136'> +5.0263399e+02 </wgt>
<wgt id='137'> +4.7991692e+02 </wgt>
<wgt id='138'> +4.6681447e+02 </wgt>
<wgt id='139'> +5.1718215e+02 </wgt>
<wgt id='140'> +5.2753408e+02 </wgt>
<wgt id='141'> +5.0813151e+02 </wgt>
<wgt id='142'> +4.9085492e+02 </wgt>
<wgt id='143'> +5.0816081e+02 </wgt>
<wgt id='144'> +4.9999785e+02 </wgt>
<wgt id='145'> +5.0415426e+02 </wgt>
</rwgt>
</event>
<event>
 4      1 +5.0481800e+02 1.99043300e+02 7.54677100e-03 1.15054900e-01
        1 -1    0    0  502    0 +0.0000000000e+00 +0.0000000000e+00 +1.4088881930e+02 1.4088881930e+02 0.0000000000e+00 0.0000e+00 -1.0000e+00
       -1 -1    0    0    0  501 -0.0000000000e+00 -0.0000000000e+00 -4.2535733854e+02 4.2535733854e+02 0.0000000000e+00 0.0000e+00 1.0000e+00
        6  1    1    2  502    0 -2.8256807267e+01 +9.4291031944e+01 -3.0705557370e+02 3.6592536288e+02 1.7300000000e+02 0.0000e+00 1.0000e+00
       -6  1    1    2    0  501 +2.8256807267e+01 -9.4291031944e+01 +2.2587054454e+01 2.0032079495e+02 1.7300000000e+02 0.0000e+00 -1.0000e+00
<mgrwt>
<rscale>  2 0.19904333E+03</rscale>
<asrwt>0</asrwt>
<pdfrwt beam="1">  1        1 0.21675203E-01 0.19904333E+03</pdfrwt>
<pdfrwt beam="2">  1       -1 0.65439590E-01 0.19904333E+03</pdfrwt>
<totfact> 0.56540235E+02</totfact>
</mgrwt>
<rwgt>
<wgt id='1'> +6.1562670e+02 </wgt>
<wgt id='2'> +5.4174034e+02 </wgt>
<wgt id='3'> +5.0481800e+02 </wgt>
<wgt id='4'> +6.1562671e+02 </wgt>
<wgt id='5'> +4.7906629e+02 </wgt>
<wgt id='6'> +6.1844746e+02 </wgt>
<wgt id='7'> +5.4224758e+02 </wgt>
<wgt id='8'> +5.0429728e+02 </wgt>
<wgt id='9'> +6.1844747e+02 </wgt>
<wgt id='10'> +4.7788732e+02 </wgt>
<wgt id='11'> +6.1780953e+02 </wgt>
<wgt id='12'> +5.4014376e+02 </wgt>
<wgt id='13'> +5.0160065e+02 </wgt>
<wgt id='14'> +6.1780953e+02 </wgt>
<wgt id='15'> +4.7482697e+02 </wgt>
<wgt id='16'> +5.0251551e+02 </wgt>
<wgt id='17'> +4.5237828e+02 </wgt>
<wgt id='18'> +4.2536639e+02 </wgt>
<wgt id='19'> +5.0251551e+02 </wgt>
<wgt id='20'> +4.0534378e+02 </wgt>
<wgt id='21'> +4.5280185e+02 </wgt>
<wgt id='22'> +4.2492761e+02 </wgt>
<wgt id='23'> +5.0481800e+02 </wgt>
<wgt id='24'> +4.0434623e+02 </wgt>
<wgt id='25'> +5.0429727e+02 </wgt>
<wgt id='26'> +4.5104506e+02 </wgt>
<wgt id='27'> +4.2265540e+02 </wgt>
<wgt id='28'> +5.0429728e+02 </wgt>
<wgt id='29'> +4.0175684e+02 </wgt>
<wgt id='30'> +4.2342627e+02 </wgt>
<wgt id='31'> +3.8446342e+02 </wgt>
<wgt id='32'> +3.6325232e+02 </wgt>
<wgt id='33'> +4.2342628e+02 </wgt>
<wgt id='34'> +3.4741481e+02 </wgt>
<wgt id='35'> +4.2536638e+02 </wgt>
<wgt id='36'> +3.8482340e+02 </wgt>
<wgt id='37'> +3.6287762e+02 </wgt>
<wgt id='38'> +4.2536639e+02 </wgt>
<wgt id='39'> +3.4655983e+02 </wgt>
<wgt id='40'> +4.2492761e+02 </wgt>
<wgt id='41'> +3.8333036e+02 </wgt>
<wgt id='42'> +3.6093721e+02 </wgt>
<wgt id='43'> +4.2492761e+02 </wgt>
<wgt id='44'> +3.4434050e+02 </wgt>
<wgt id='45'> +5.0481800e+02 </wgt>
<wgt id='46'> +5.2336062e+02 </wgt>
<wgt id='47'> +5.0718340e+02 </wgt>
<wgt id='48'> +4.7074954e+02 </wgt>
<wgt id='49'> +4.9359402e+02 </wgt>
<wgt id='50'> +4.4545306e+02 </wgt>
<wgt id='51'> +4.5703116e+02 </wgt>
<wgt id='52'> +5.5499405e+02 </wgt>
<wgt id='53'> +5.4430764e+02 </wgt>
<wgt id='54'> +4.9851123e+02 </wgt>
<wgt id='55'> +4.8378367e+02 </wgt>
<wgt id='56'> +5.0675502e+02 </wgt>
<wgt id='57'> +4.4251513e+02 </wgt>
<wgt id='58'> +5.8899645e+02 </wgt>
<wgt id='59'> +4.5561842e+02 </wgt>
<wgt id='60'> +4.9914845e+02 </wgt>
<wgt id='61'> +4.9454407e+02 </wgt>
<wgt id='62'> +5.3395016e+02 </wgt>
<wgt id='63'> +5.4365922e+02 </wgt>
<wgt id='64'> +4.9192116e+02 </wgt>
<wgt id='65'> +4.6714394e+02 </wgt>
<wgt id='66'> +4.6437744e+02 </wgt>
<wgt id='67'> +5.3341778e+02 </wgt>
<wgt id='68'> +4.5603805e+02 </wgt>
<wgt id='69'> +4.7679498e+02 </wgt>
<wgt id='70'> +5.7413229e+02 </wgt>
<wgt id='71'> +4.7729996e+02 </wgt>
<wgt id='72'> +4.6360810e+02 </wgt>
<wgt id='73'> +5.3288183e+02 </wgt>
<wgt id='74'> +4.8978116e+02 </wgt>
<wgt id='75'> +4.9185966e+02 </wgt>
<wgt id='76'> +5.1444091e+02 </wgt>
<wgt id='77'> +5.1344853e+02 </wgt>
<wgt id='78'> +4.8504403e+02 </wgt>
<wgt id='79'> +5.3396298e+02 </wgt>
<wgt id='80'> +5.1188485e+02 </wgt>
<wgt id='81'> +5.6002842e+02 </wgt>
<wgt id='82'> +4.8344400e+02 </wgt>
<wgt id='83'> +4.6357811e+02 </wgt>
<wgt id='84'> +5.1147157e+02 </wgt>
<wgt id='85'> +4.9292301e+02 </wgt>
<wgt id='86'> +5.6773382e+02 </wgt>
<wgt id='87'> +5.3119364e+02 </wgt>
<wgt id='88'> +4.7998815e+02 </wgt>
<wgt id='89'> +6.0909785e+02 </wgt>
<wgt id='90'> +5.7654291e+02 </wgt>
<wgt id='91'> +4.4820767e+02 </wgt>
<wgt id='92'> +4.8752143e+02 </wgt>
<wgt id='93'> +5.3036954e+02 </wgt>
<wgt id='94'> +5.3827547e+02 </wgt>
<wgt id='95'> +4.7843954e+02 </wgt>
<wgt id='96'> +5.0397153e+02 </wgt>
<wgt id='97'> +4.9157979e+02 </wgt>
<wgt id='98'> +5.0527540e+02 </wgt>
<wgt id='99'> +5.8019796e+02 </wgt>
<wgt id='100'> +4.4972894e+02 </wgt>
<wgt id='101'> +4.7895221e+02 </wgt>
<wgt id='102'> +5.1876219e+02 </wgt>
<wgt id='103'> +5.2463248e+02 </wgt>
<wgt id='104'> +4.4555700e+02 </wgt>
<wgt id='105'> +5.1622769e+02 </wgt>
<wgt id='106'> +5.2101279e+02 </wgt>
<wgt id='107'> +4.9282372e+02 </wgt>
<wgt id='108'> +5.0038969e+02 </wgt>
<wgt id='109'> +4.5837483e+02 </wgt>
<wgt id='110'> +5.5440084e+02 </wgt>
<wgt id='111'> +5.0034955e+02 </wgt>
<wgt id='112'> +4.7955324e+02 </wgt>
<wgt id='113'> +5.2937682e+02 </wgt>
<wgt id='114'> +4.7093422e+02 </wgt>
<wgt id='115'> +4.5879365e+02 </wgt>
<wgt id='116'> +4.7262136e+02 </wgt>
<wgt id='117'> +4.6688174e+02 </wgt>
<wgt id='118'> +5.0774503e+02 </wgt>
<wgt id='119'> +5.4375453e+02 </wgt>
<wgt id='120'> +5.0590041e+02 </wgt>
<wgt id='121'> +4.7612218e+02 </wgt>
<wgt id='122'> +4.9889338e+02 </wgt>
<wgt id='123'> +5.0657891e+02 </wgt>
<wgt id='124'> +4.7759526e+02 </wgt>
<wgt id='125'> +4.5337826e+02 </wgt>
<wgt id='126'> +5.4027743e+02 </wgt>
<wgt id='127'> +5.2676877e+02 </wgt>
<wgt id='128'> +4.9037725e+02 </wgt>
<wgt id='129'> +4.8856262e+02 </wgt>
<wgt id='130'> +4.6008676e+02 </wgt>
<wgt id='131'> +5.3829810e+02 </wgt>
<wgt id='132'> +4.8857905e+02 </wgt>
<wgt id='133'> +6.2708869e+02 </wgt>
<wgt id='134'> +4.6029671e+02 </wgt>
<wgt id='135'> +4.4008031e+02 </wgt>
<wgt id='136'> +5.5888290e+02 </wgt>
<wgt id='137'> +5.1112024e+02 </wgt>
<wgt id='138'> +4.9733246e+02 </wgt>
<wgt id='139'> +6.0456742e+02 </wgt>
<wgt id='140'> +4.8152674e+02 </wgt>
<wgt id='141'> +5.3031202e+02 </wgt>
<wgt id='142'> +4.9370589e+02 </wgt>
<wgt id='143'> +5.1879731e+02 </wgt>
<wgt id='144'> +5.0326369e+02 </wgt>
<wgt id='145'> +5.4183510e+02 </wgt>
</rwgt>
</event>
<event>
 4      1 +5.0481800e+02 2.55341400e+02 7.54677100e-03 1.10997500e-01
       21 -1    0    0  503  502 +0.0000000000e+00 +0.0000000000e+00 +1.0233871763e+03 1.0233871763e+03 0.0000000000e+00 0.0000e+00 1.0000e+00
       21 -1    0    0  501  503 -0.0000000000e+00 -0.0000000000e+00 -6.6081853047e+01 6.6081853047e+01 0.0000000000e+00 0.0000e+00 -1.0000e+00
        6  1    1    2  501    0 -1.7229950812e+02 +7.4720224316e+01 +3.7543451324e+02 4.5403778053e+02 1.7300000000e+02 0.0000e+00 -1.0000e+00
       -6  1    1    2    0  502 +1.7229950812e+02 -7.4720224316e+01 +5.8187080999e+02 6.3543124879e+02 1.7300000000e+02 0.0000e+00 -1.0000e+00
<mgrwt>
<rscale>  2 0.25534140E+03</rscale>
<asrwt>0</asrwt>
<pdfrwt beam="1">  1       21 0.15744417E+00 0.25534140E+03</pdfrwt>
<pdfrwt beam="2">  1       21 0.10166440E-01 0.25534140E+03</pdfrwt>
<totfact> 0.19932539E+04</totfact>
</mgrwt>
<rwgt>
<wgt id='1'> +6.6583067e+02 </wgt>
<wgt id='2'> +5.5637797e+02 </wgt>
<wgt id='3'> +5.0481800e+02 </wgt>
<wgt id='4'> +6.6583067e+02 </wgt>
<wgt id='5'> +5.0126234e+02 </wgt>
<wgt id='6'> +6.1020313e+02 </wgt>
<wgt id='7'> +5.0607122e+02 </wgt>
<wgt id='8'> +4.5951430e+02 </wgt>
<wgt id='9'> +6.1020313e+02 </wgt>
<wgt id='10'> +4.5630034e+02 </wgt>
<wgt id='11'> +5.5544190e+02 </wgt>
<wgt id='12'> +4.6128270e+02 </wgt>
<wgt id='13'> +4.1921267e+02 </wgt>
<wgt id='14'> +5.5544189e+02 </wgt>
<wgt id='15'> +4.1630825e+02 </wgt>
<wgt id='16'> +5.5083838e+02 </wgt>
<wgt id='17'> +4.6881759e+02 </wgt>
<wgt id='18'> +4.2749168e+02 </wgt>
<wgt id='19'> +5.5083838e+02 </wgt>
<wgt id='20'> +4.2463465e+02 </wgt>
<wgt id='21'> +4.2642790e+02 </wgt>
<wgt id='22'> +3.8912745e+02 </wgt>
<wgt id='23'> +5.0481800e+02 </wgt>
<wgt id='24'> +3.8654596e+02 </wgt>
<wgt id='25'> +4.5951430e+02 </wgt>
<wgt id='26'> +3.8868801e+02 </wgt>
<wgt id='27'> +3.5499908e+02 </wgt>
<wgt id='28'> +4.5951430e+02 </wgt>
<wgt id='29'> +3.5266745e+02 </wgt>
<wgt id='30'> +4.6646282e+02 </wgt>
<wgt id='31'> +4.0036250e+02 </wgt>
<wgt id='32'> +3.6666264e+02 </wgt>
<wgt id='33'> +4.6646281e+02 </wgt>
<wgt id='34'> +3.6432489e+02 </wgt>
<wgt id='35'> +4.2749168e+02 </wgt>
<wgt id='36'> +3.6416241e+02 </wgt>
<wgt id='37'> +3.3375737e+02 </wgt>
<wgt id='38'> +4.2749168e+02 </wgt>
<wgt id='39'> +3.3164583e+02 </wgt>
<wgt id='40'> +3.8912745e+02 </wgt>
<wgt id='41'> +3.3193316e+02 </wgt>
<wgt id='42'> +3.0448523e+02 </wgt>
<wgt id='43'> +3.8912745e+02 </wgt>
<wgt id='44'> +3.0257900e+02 </wgt>
<wgt id='45'> +5.0481800e+02 </wgt>
<wgt id='46'> +5.1916389e+02 </wgt>
<wgt id='47'> +5.1990571e+02 </wgt>
<wgt id='48'> +5.0571329e+02 </wgt>
<wgt id='49'> +4.7814818e+02 </wgt>
<wgt id='50'> +5.9835980e+02 </wgt>
<wgt id='51'> +4.8207047e+02 </wgt>
<wgt id='52'> +4.8790493e+02 </wgt>
<wgt id='53'> +5.0076027e+02 </wgt>
<wgt id='54'> +5.2746110e+02 </wgt>
<wgt id='55'> +5.2856020e+02 </wgt>
<wgt id='56'> +4.7166054e+02 </wgt>
<wgt id='57'> +5.2647012e+02 </wgt>
<wgt id='58'> +4.7153257e+02 </wgt>
<wgt id='59'> +5.4168391e+02 </wgt>
<wgt id='60'> +5.0644798e+02 </wgt>
<wgt id='61'> +4.5128961e+02 </wgt>
<wgt id='62'> +4.7861172e+02 </wgt>
<wgt id='63'> +5.2105612e+02 </wgt>
<wgt id='64'> +5.0118305e+02 </wgt>
<wgt id='65'> +5.0412938e+02 </wgt>
<wgt id='66'> +5.0440644e+02 </wgt>
<wgt id='67'> +5.0713235e+02 </wgt>
<wgt id='68'> +5.8619411e+02 </wgt>
<wgt id='69'> +5.2728063e+02 </wgt>
<wgt id='70'> +5.2066377e+02 </wgt>
<wgt id='71'> +4.8831492e+02 </wgt>
<wgt id='72'> +4.7431608e+02 </wgt>
<wgt id='73'> +4.6863045e+02 </wgt>
<wgt id='74'> +5.5812657e+02 </wgt>
<wgt id='75'> +5.3155598e+02 </wgt>
<wgt id='76'> +5.1194944e+02 </wgt>
<wgt id='77'> +4.8733069e+02 </wgt>
<wgt id='78'> +4.5396071e+02 </wgt>
<wgt id='79'> +5.2198539e+02 </wgt>
<wgt id='80'> +4.6679059e+02 </wgt>
<wgt id='81'> +5.0910767e+02 </wgt>
<wgt id='82'> +4.8936896e+02 </wgt>
<wgt id='83'> +5.0250011e+02 </wgt>
<wgt id='84'> +5.1408455e+02 </wgt>
<wgt id='85'> +4.7998722e+02 </wgt>
<wgt id='86'> +5.1919069e+02 </wgt>
<wgt id='87'> +5.0348811e+02 </wgt>
<wgt id='88'> +4.9747138e+02 </wgt>
<wgt id='89'> +4.6759886e+02 </wgt>
<wgt id='90'> +4.9238360e+02 </wgt>
<wgt id='91'> +4.7291591e+02 </wgt>
<wgt id='92'> +4.6796181e+02 </wgt>
<wgt id='93'> +5.0676723e+02 </wgt>
<wgt id='94'> +4.7357695e+02 </wgt>
<wgt id='95'> +5.2039175e+02 </wgt>
<wgt id='96'> +5.3143582e+02 </wgt>
<wgt id='97'> +4.7510028e+02 </wgt>
<wgt id='98'> +5.2087446e+02 </wgt>
<wgt id='99'> +4.4721785e+02 </wgt>
<wgt id='100'> +4.2024189e+02 </wgt>
<wgt id='101'> +5.7780728e+02 </wgt>
<wgt id='102'> +5.4995744e+02 </wgt>
<wgt id='103'> +5.0921900e+02 </wgt>
<wgt id='104'> +5.2708640e+02 </wgt>
<wgt id='105'> +5.1873943e+02 </wgt>
<wgt id='106'> +4.7687319e+02 </wgt>
<wgt id='107'> +4.8122106e+02 </wgt>
<wgt id='108'> +4.6064472e+02 </wgt>
<wgt id='109'> +4.9034739e+02 </wgt>
<wgt id='110'> +4.8021108e+02 </wgt>
<wgt id='111'> +4.9231269e+02 </wgt>
<wgt id='112'> +5.0578551e+02 </wgt>
<wgt id='113'> +5.0086312e+02 </wgt>
<wgt id='114'> +5.1106144e+02 </wgt>
<wgt id='115'> +4.6774709e+02 </wgt>
<wgt id='116'> +5.4180169e+02 </wgt>
<wgt id='117'> +4.9434570e+02 </wgt>
<wgt id='118'> +5.2635297e+02 </wgt>
<wgt id='119'> +5.2657502e+02 </wgt>
<wgt id='120'> +5.0203666e+02 </wgt>
<wgt id='121'> +4.9973426e+02 </wgt>
<wgt id='122'> +4.9710115e+02 </wgt>
<wgt id='123'> +4.9438382e+02 </wgt>
<wgt id='124'> +5.6753071e+02 </wgt>
<wgt id='125'> +6.0246264e+02 </wgt>
<wgt id='126'> +5.0479799e+02 </wgt>
<wgt id='127'> +4.9846432e+02 </wgt>
<wgt id='128'> +4.7316029e+02 </wgt>
<wgt id='129'> +5.3689703e+02 </wgt>
<wgt id='130'> +4.8895292e+02 </wgt>
<wgt id='131'> +4.8974821e+02 </wgt>
<wgt id='132'> +5.4757713e+02 </wgt>
<wgt id='133'> +5.3842658e+02 </wgt>
<wgt id='134'> +5.1483095e+02 </wgt>
<wgt id='135'> +4.9443713e+02 </wgt>
<wgt id='136'> +5.6809141e+02 </wgt>
<wgt id='137'> +5.0771583e+02 </wgt>
<wgt id='138'> +4.9987243e+02 </wgt>
<wgt id='139'> +5.2018687e+02 </wgt>
<wgt id='140'> +5.0135935e+02 </wgt>
<wgt id='141'> +5.4525437e+02 </wgt>
<wgt id='142'> +4.0782389e+02 </wgt>
<wgt id='143'> +5.1872804e+02 </wgt>
<wgt id='144'> +4.7356167e+02 </wgt>
<wgt id='145'> +4.7995450e+02 </wgt>
</rwgt>
</event>
<event>
 4      1 +5.0481800e+02 1.88257500e+02 7.54677100e-03 1.16004200e-01
       21 -1    0    0  501  502 +0.0000000000e+00 +0.0000000000e+00 +7.4902620319e+02 7.4902620319e+02 0.0000000000e+00 0.0000e+00 1.0000e+00
       21 -1    0    0  502  503 -0.0000000000e+00 -0.0000000000e+00 -6.4865366136e+01 6.4865366136e+01 0.0000000000e+00 0.0000e+00 1.0000e+00
        6  1    1    2  501    0 +3.6443626290e+01 +6.4681918782e+01 +5.5375144609e+02 5.8487738250e+02 1.7300000000e+02 0.0000e+00 1.0000e+00
       -6  1    1    2    0  503 -3.6443626290e+01 -6.4681918782e+01 +1.3040939096e+02 2.2901418682e+02 1.7300000000e+02 0.0000e+00 1.0000e+00
<mgrwt>
<rscale>  2 0.18825751E+03</rscale>
<asrwt>0</asrwt>
<pdfrwt beam="1">  1       21 0.11523479E+00 0.18825751E+03</pdfrwt>
<pdfrwt beam="2">  1       21 0.99792876E-02 0.18825751E+03</pdfrwt>
<totfact> 0.47618150E+04</totfact>
</mgrwt>
<rwgt>
<wgt id='1'> +6.5666382e+02 </wgt>
<wgt id='2'> +6.5294395e+02 </wgt>
<wgt id='3'> +5.0481800e+02 </wgt>
<wgt id='4'> +6.5666383e+02 </wgt>
<wgt id='5'> +4.7656187e+02 </wgt>
<wgt id='6'> +6.2014883e+02 </wgt>
<wgt id='7'> +6.1641205e+02 </wgt>
<wgt id='8'> +4.6846734e+02 </wgt>
<wgt id='9'> +6.2014884e+02 </wgt>
<wgt id='10'> +4.4210988e+02 </wgt>
<wgt id='11'> +5.7549349e+02 </wgt>
<wgt id='12'> +5.7196197e+02 </wgt>
<wgt id='13'> +4.3472193e+02 </wgt>
<wgt id='14'> +5.7549349e+02 </wgt>
<wgt id='15'> +4.1033103e+02 </wgt>
<wgt id='16'> +5.3454220e+02 </wgt>
<wgt id='17'> +5.3187798e+02 </wgt>
<wgt id='18'> +4.2472843e+02 </wgt>
<wgt id='19'> +5.3454220e+02 </wgt>
<wgt id='20'> +4.0238857e+02 </wgt>
<wgt id='21'> +5.0211966e+02 </wgt>
<wgt id='22'> +3.9414481e+02 </wgt>
<wgt id='23'> +5.0481800e+02 </wgt>
<wgt id='24'> +3.7329878e+02 </wgt>
<wgt id='25'> +4.6846733e+02 </wgt>
<wgt id='26'> +4.6591132e+02 </wgt>
<wgt id='27'> +3.6575313e+02 </wgt>
<wgt id='28'> +4.6846734e+02 </wgt>
<wgt id='29'> +3.4646607e+02 </wgt>
<wgt id='30'> +4.4973687e+02 </wgt>
<wgt id='31'> +4.4768240e+02 </wgt>
<wgt id='32'> +3.6234184e+02 </wgt>
<wgt id='33'> +4.4973687e+02 </wgt>
<wgt id='34'> +3.4425431e+02 </wgt>
<wgt id='35'> +4.2472843e+02 </wgt>
<wgt id='36'> +4.2263479e+02 </wgt>
<wgt id='37'> +3.3625052e+02 </wgt>
<wgt id='38'> +4.2472843e+02 </wgt>
<wgt id='39'> +3.1936721e+02 </wgt>
<wgt id='40'> +3.9414481e+02 </wgt>
<wgt id='41'> +3.9215818e+02 </wgt>
<wgt id='42'> +3.1202917e+02 </wgt>
<wgt id='43'> +3.9414481e+02 </wgt>
<wgt id='44'> +2.9641109e+02 </wgt>
<wgt id='45'> +5.0481800e+02 </wgt>
<wgt id='46'> +5.1612183e+02 </wgt>
<wgt id='47'> +5.1788231e+02 </wgt>
<wgt id='48'> +5.0674538e+02 </wgt>
<wgt id='49'> +4.9227942e+02 </wgt>
<wgt id='50'> +5.9528049e+02 </wgt>
<wgt id='51'> +4.8979669e+02 </wgt>
<wgt id='52'> +5.0117988e+02 </wgt>
<wgt id='53'> +4.9802228e+02 </wgt>
<wgt id='54'> +5.1686775e+02 </wgt>
<wgt id='55'> +4.9284333e+02 </wgt>
<wgt id='56'> +4.6468256e+02 </wgt>
<wgt id='57'> +5.1324298e+02 </wgt>
<wgt id='58'> +4.8985562e+02 </wgt>
<wgt id='59'> +5.2926529e+02 </wgt>
<wgt id='60'> +5.0637534e+02 </wgt>
<wgt id='61'> +4.4057974e+02 </wgt>
<wgt id='62'> +4.9119191e+02 </wgt>
<wgt id='63'> +5.1042091e+02 </wgt>
<wgt id='64'> +4.9799965e+02 </wgt>
<wgt id='65'> +5.4280484e+02 </wgt>
<wgt id='66'> +4.9780987e+02 </wgt>
<wgt id='67'> +5.0725798e+02 </wgt>
<wgt id='68'> +5.6126451e+02 </wgt>
<wgt id='69'> +5.0731767e+02 </wgt>
<wgt id='70'> +5.0324389e+02 </wgt>
<wgt id='71'> +5.0449013e+02 </wgt>
<wgt id='72'> +4.8648365e+02 </wgt>
<wgt id='73'> +4.8451031e+02 </wgt>
<wgt id='74'> +5.3816515e+02 </wgt>
<wgt id='75'> +5.1826282e+02 </wgt>
<wgt id='76'> +5.0309033e+02 </wgt>
<wgt id='77'> +4.9407647e+02 </wgt>
<wgt id='78'> +4.7573689e+02 </wgt>
<wgt id='79'> +5.0487789e+02 </wgt>
<wgt id='80'> +4.8557953e+02 </wgt>
<wgt id='81'> +4.9892606e+02 </wgt>
<wgt id='82'> +4.9305205e+02 </wgt>
<wgt id='83'> +5.0677620e+02 </wgt>
<wgt id='84'> +5.3223700e+02 </wgt>
<wgt id='85'> +5.0442217e+02 </wgt>
<wgt id='86'> +5.0923045e+02 </wgt>
<wgt id='87'> +5.0730961e+02 </wgt>
<wgt id='88'> +5.0283342e+02 </wgt>
<wgt id='89'> +5.0084205e+02 </wgt>
<wgt id='90'> +5.0998967e+02 </wgt>
<wgt id='91'> +5.0502170e+02 </wgt>
<wgt id='92'> +4.6616728e+02 </wgt>
<wgt id='93'> +5.0331473e+02 </wgt>
<wgt id='94'> +4.8698902e+02 </wgt>
<wgt id='95'> +5.0654748e+02 </wgt>
<wgt id='96'> +5.3459380e+02 </wgt>
<wgt id='97'> +4.9319590e+02 </wgt>
<wgt id='98'> +5.0060577e+02 </wgt>
<wgt id='99'> +4.7164698e+02 </wgt>
<wgt id='100'> +4.5924315e+02 </wgt>
<wgt id='101'> +5.6085502e+02 </wgt>
<wgt id='102'> +5.2633516e+02 </wgt>
<wgt id='103'> +5.3341350e+02 </wgt>
<wgt id='104'> +5.1240718e+02 </wgt>
<wgt id='105'> +5.2128019e+02 </wgt>
<wgt id='106'> +4.6737345e+02 </wgt>
<wgt id='107'> +4.8215011e+02 </wgt>
<wgt id='108'> +4.5200604e+02 </wgt>
<wgt id='109'> +4.8173566e+02 </wgt>
<wgt id='110'> +4.9644249e+02 </wgt>
<wgt id='111'> +4.9265966e+02 </wgt>
<wgt id='112'> +4.8648540e+02 </wgt>
<wgt id='113'> +4.7775010e+02 </wgt>
<wgt id='114'> +5.0041520e+02 </wgt>
<wgt id='115'> +4.7535183e+02 </wgt>
<wgt id='116'> +5.2561224e+02 </wgt>
<wgt id='117'> +4.9716886e+02 </wgt>
<wgt id='118'> +5.2762872e+02 </wgt>
<wgt id='119'> +5.0287705e+02 </wgt>
<wgt id='120'> +4.9580624e+02 </wgt>
<wgt id='121'> +4.9925597e+02 </wgt>
<wgt id='122'> +4.9948772e+02 </wgt>
<wgt id='123'> +5.0376488e+02 </wgt>
<wgt id='124'> +5.5901676e+02 </wgt>
<wgt id='125'> +5.7082585e+02 </wgt>
<wgt id='126'> +5.1489081e+02 </wgt>
<wgt id='127'> +5.1231709e+02 </wgt>
<wgt id='128'> +4.6234910e+02 </wgt>
<wgt id='129'> +5.5647602e+02 </wgt>
<wgt id='130'> +4.9518606e+02 </wgt>
<wgt id='131'> +5.1591028e+02 </wgt>
<wgt id='132'> +5.3610377e+02 </wgt>
<wgt id='133'> +5.2332662e+02 </wgt>
<wgt id='134'> +4.9827647e+02 </wgt>
<wgt id='135'> +5.0705628e+02 </wgt>
<wgt id='136'> +5.3510368e+02 </wgt>
<wgt id='137'> +4.8878528e+02 </wgt>
<wgt id='138'> +4.7932188e+02 </wgt>
<wgt id='139'> +5.1991338e+02 </wgt>
<wgt id='140'> +5.1408760e+02 </wgt>
<wgt id='141'> +5.2000369e+02 </wgt>
<wgt id='142'> +4.6069929e+02 </wgt>
<wgt id='143'> +5.1690089e+02 </wgt>
<wgt id='144'> +4.9036399e+02 </wgt>
<wgt id='145'> +4.9515147e+02 </wgt>
</rwgt>
</event>
<event>
 4      1 +5.0481800e+02 1.95919900e+02 7.54677100e-03 1.15322800e-01
       21 -1    0    0  501  502 +0.0000000000e+00 +0.0000000000e+00 +5.4131293649e+01 5.4131293649e+01 0.0000000000e+00 0.0000e+00 -1.0000e+00
       21 -1    0    0  502  503 -0.0000000000e+00 -0.0000000000e+00 -1.7158885118e+03 1.7158885118e+03 0.0000000000e+00 0.0000e+00 -1.0000e+00
        6  1    1    2  501    0 +6.2170321260e+01 -6.7753058057e+01 -1.5296832402e+02 2.4856374208e+02 1.7300000000e+02 0.0000e+00 -1.0000e+00
       -6  1    1    2    0  503 -6.2170321260e+01 +6.7753058057e+01 -1.5087888941e+03 1.5214560634e+03 1.7300000000e+02 0.0000e+00 -1.0000e+00
<mgrwt>
<rscale>  2 0.19591995E+03</rscale>
<asrwt>0</asrwt>
<pdfrwt beam="1">  1       21 0.83278924E-02 0.19591995E+03</pdfrwt>
<pdfrwt beam="2">  1       21 0.26398281E+00 0.19591995E+03</pdfrwt>
<totfact> 0.61429039E+03</totfact>
</mgrwt>
<rwgt>
<wgt id='1'> +7.0638329e+02 </wgt>
<wgt id='2'> +6.6559415e+02 </wgt>
<wgt id='3'> +5.0481800e+02 </wgt>
<wgt id='4'> +7.0638329e+02 </wgt>
<wgt id='5'> +4.1261305e+02 </wgt>
<wgt id='6'> +6.1895584e+02 </wgt>
<wgt id='7'> +5.8196033e+02 </wgt>
<wgt id='8'> +4.3849319e+02 </wgt>
<wgt id='9'> +6.1895584e+02 </wgt>
<wgt id='10'> +3.6001719e+02 </wgt>
<wgt id='11'> +5.3763518e+02 </wgt>
<wgt id='12'> +5.0609678e+02 </wgt>
<wgt id='13'> +3.8356698e+02 </wgt>
<wgt id='14'> +5.3763518e+02 </wgt>
<wgt id='15'> +3.1631843e+02 </wgt>
<wgt id='16'> +5.7612349e+02 </wgt>
<wgt id='17'> +5.4642978e+02 </wgt>
<wgt id='18'> +4.2519944e+02 </wgt>
<wgt id='19'> +5.7612349e+02 </wgt>
<wgt id='20'> +3.5062045e+02 </wgt>
<wgt id='21'> +4.7776930e+02 </wgt>
<wgt id='22'> +3.6933519e+02 </wgt>
<wgt id='23'> +5.0481800e+02 </wgt>
<wgt id='24'> +3.0592680e+02 </wgt>
<wgt id='25'> +4.3849318e+02 </wgt>
<wgt id='26'> +4.1548796e+02 </wgt>
<wgt id='27'> +3.2307181e+02 </wgt>
<wgt id='28'> +4.3849319e+02 </wgt>
<wgt id='29'> +2.6879351e+02 </wgt>
<wgt id='30'> +4.8525881e+02 </wgt>
<wgt id='31'> +4.6138967e+02 </wgt>
<wgt id='32'> +3.6300600e+02 </wgt>
<wgt id='33'> +4.8525881e+02 </wgt>
<wgt id='34'> +3.0161839e+02 </wgt>
<wgt id='35'> +4.2519943e+02 </wgt>
<wgt id='36'> +4.0341473e+02 </wgt>
<wgt id='37'> +3.1531296e+02 </wgt>
<wgt id='38'> +4.2519944e+02 </wgt>
<wgt id='39'> +2.6317104e+02 </wgt>
<wgt id='40'> +3.6933519e+02 </wgt>
<wgt id='41'> +3.5082615e+02 </wgt>
<wgt id='42'> +2.7581646e+02 </wgt>
<wgt id='43'> +3.6933519e+02 </wgt>
<wgt id='44'> +2.3122744e+02 </wgt>
<wgt id='45'> +5.0481800e+02 </wgt>
<wgt id='46'> +5.1355123e+02 </wgt>
<wgt id='47'> +5.6084963e+02 </wgt>
<wgt id='48'> +5.0449411e+02 </wgt>
<wgt id='49'> +4.4675194e+02 </wgt>
<wgt id='50'> +5.9937839e+02 </wgt>
<wgt id='51'> +4.7047712e+02 </wgt>
<wgt id='52'> +4.3192549e+02 </wgt>
<wgt id='53'> +5.3661534e+02 </wgt>
<wgt id='54'> +5.4129800e+02 </wgt>
<wgt id='55'> +6.1020274e+02 </wgt>
<wgt id='56'> +4.9129989e+02 </wgt>
<wgt id='57'> +5.4458731e+02 </wgt>
<wgt id='58'> +4.3314099e+02 </wgt>
<wgt id='59'> +5.4640002e+02 </wgt>
<wgt id='60'> +4.8654711e+02 </wgt>
<wgt id='61'> +4.0159939e+02 </wgt>
<wgt id='62'> +4.4073049e+02 </wgt>
<wgt id='63'> +5.4050408e+02 </wgt>
<wgt id='64'> +5.0730393e+02 </wgt>
<wgt id='65'> +4.1397594e+02 </wgt>
<wgt id='66'> +5.2214624e+02 </wgt>
<wgt id='67'> +5.0632365e+02 </wgt>
<wgt id='68'> +6.8888562e+02 </wgt>
<wgt id='69'> +5.8932119e+02 </wgt>
<wgt id='70'> +6.1098715e+02 </wgt>
<wgt id='71'> +4.4105030e+02 </wgt>
<wgt id='72'> +4.2793830e+02 </wgt>
<wgt id='73'> +4.4234170e+02 </wgt>
<wgt id='74'> +6.3360165e+02 </wgt>
<wgt id='75'> +6.0493207e+02 </wgt>
<wgt id='76'> +5.2004177e+02 </wgt>
<wgt id='77'> +4.4799636e+02 </wgt>
<wgt id='78'> +4.1200444e+02 </wgt>
<wgt id='79'> +5.6988230e+02 </wgt>
<wgt id='80'> +4.1052634e+02 </wgt>
<wgt id='81'> +5.4997677e+02 </wgt>
<wgt id='82'> +5.0471380e+02 </wgt>
<wgt id='83'> +5.0276211e+02 </wgt>
<wgt id='84'> +4.6529510e+02 </wgt>
<wgt id='85'> +4.2665483e+02 </wgt>
<wgt id='86'> +5.5556478e+02 </wgt>
<wgt id='87'> +4.8216473e+02 </wgt>
<wgt id='88'> +5.1240189e+02 </wgt>
<wgt id='89'> +3.5603717e+02 </wgt>
<wgt id='90'> +4.2679339e+02 </wgt>
<wgt id='91'> +3.9486459e+02 </wgt>
<wgt id='92'> +4.7525140e+02 </wgt>
<wgt id='93'> +5.2078548e+02 </wgt>
<wgt id='94'> +4.4843744e+02 </wgt>
<wgt id='95'> +5.2771523e+02 </wgt>
<wgt id='96'> +5.2676601e+02 </wgt>
<wgt id='97'> +4.3200358e+02 </wgt>
<wgt id='98'> +5.9213410e+02 </wgt>
<wgt id='99'> +3.8757098e+02 </wgt>
<wgt id='100'> +3.3720328e+02 </wgt>
<wgt id='101'> +6.0393062e+02 </wgt>
<wgt id='102'> +5.8820153e+02 </wgt>
<wgt id='103'> +4.4193387e+02 </wgt>
<wgt id='104'> +5.6554505e+02 </wgt>
<wgt id='105'> +5.1501232e+02 </wgt>
<wgt id='106'> +5.0908089e+02 </wgt>
<wgt id='107'> +5.1211043e+02 </wgt>
<wgt id='108'> +4.7367303e+02 </wgt>
<wgt id='109'> +5.0326644e+02 </wgt>
<wgt id='110'> +4.2588385e+02 </wgt>
<wgt id='111'> +4.7922183e+02 </wgt>
<wgt id='112'> +5.3271607e+02 </wgt>
<wgt id='113'> +5.8809731e+02 </wgt>
<wgt id='114'> +5.1569139e+02 </wgt>
<wgt id='115'> +4.7392738e+02 </wgt>
<wgt id='116'> +5.7416141e+02 </wgt>
<wgt id='117'> +5.0794837e+02 </wgt>
<wgt id='118'> +5.0512456e+02 </wgt>
<wgt id='119'> +5.6963065e+02 </wgt>
<wgt id='120'> +5.0192643e+02 </wgt>
<wgt id='121'> +4.7100338e+02 </wgt>
<wgt id='122'> +4.8188889e+02 </wgt>
<wgt id='123'> +4.5774023e+02 </wgt>
<wgt id='124'> +5.6840523e+02 </wgt>
<wgt id='125'> +6.9962773e+02 </wgt>
<wgt id='126'> +4.8116425e+02 </wgt>
<wgt id='127'> +4.5913943e+02 </wgt>
<wgt id='128'> +5.0464447e+02 </wgt>
<wgt id='129'> +4.8660296e+02 </wgt>
<wgt id='130'> +5.2003114e+02 </wgt>
<wgt id='131'> +4.3412965e+02 </wgt>
<wgt id='132'> +5.4145248e+02 </wgt>
<wgt id='133'> +5.6344605e+02 </wgt>
<wgt id='134'> +5.5380694e+02 </wgt>
<wgt id='135'> +4.7003145e+02 </wgt>
<wgt id='136'> +6.1711829e+02 </wgt>
<wgt id='137'> +5.8173246e+02 </wgt>
<wgt id='138'> +5.4566058e+02 </wgt>
<wgt id='139'> +5.2311299e+02 </wgt>
<wgt id='140'> +4.8722387e+02 </wgt>
<wgt id='141'> +6.3713047e+02 </wgt>
<wgt id='142'> +2.6625973e+02 </wgt>
<wgt id='143'> +5.0969631e+02 </wgt>
<wgt id='144'> +4.3595317e+02 </wgt>
<wgt id='145'> +4.5210649e+02 </wgt>
</rwgt>
</event>
<event>
 4      1 +5.0481800e+02 2.75984800e+02 7.54677100e-03 1.09790200e-01
        2 -1    0    0  502    0 +0.0000000000e+00 +0.0000000000e+00 +1.0069787807e+02 1.0069787807e+02 0.0000000000e+00 0.0000e+00 1.0000e+00
       -2 -1    0    0    0  501 -0.0000000000e+00 -0.0000000000e+00 -7.5853242912e+02 7.5853242912e+02 0.0000000000e+00 0.0000e+00 -1.0000e+00
        6  1    1    2  502    0 +1.6469804305e+02 -1.3825033309e+02 -3.5171060257e+02 4.4706593244e+02 1.7300000000e+02 0.0000e+00 -1.0000e+00
       -6  1    1    2    0  501 -1.6469804305e+02 +1.3825033309e+02 -3.0612394847e+02 4.1216437475e+02 1.7300000000e+02 0.0000e+00 1.0000e+00
<mgrwt>
<rscale>  2 0.27598478E+03</rscale>
<asrwt>0</asrwt>
<pdfrwt beam="1">  1        2 0.15491981E-01 0.27598478E+03</pdfrwt>
<pdfrwt beam="2">  1       -2 0.11669730E+00 0.27598478E+03</pdfrwt>
<totfact> 0.22340331E+02</totfact>
</mgrwt>
<rwgt>
<wgt id='1'> +6.0720268e+02 </wgt>
<wgt id='2'> +5.2568460e+02 </wgt>
<wgt id='3'> +5.0481800e+02 </wgt>
<wgt id='4'> +6.0720267e+02 </wgt>
<wgt id='5'> +5.0463956e+02 </wgt>
<wgt id='6'> +6.0777924e+02 </wgt>
<wgt id='7'> +5.2382565e+02 </wgt>
<wgt id='8'> +5.0244472e+02 </wgt>
<wgt id='9'> +6.0777924e+02 </wgt>
<wgt id='10'> +5.0226213e+02 </wgt>
<wgt id='11'> +6.0492192e+02 </wgt>
<wgt id='12'> +5.1963036e+02 </wgt>
<wgt id='13'> +4.9799315e+02 </wgt>
<wgt id='14'> +6.0492192e+02 </wgt>
<wgt id='15'> +4.9780856e+02 </wgt>
<wgt id='16'> +5.0433911e+02 </wgt>
<wgt id='17'> +4.4442191e+02 </wgt>
<wgt id='18'> +4.2814920e+02 </wgt>
<wgt id='19'> +5.0433911e+02 </wgt>
<wgt id='20'> +4.2800973e+02 </wgt>
<wgt id='21'> +4.4285032e+02 </wgt>
<wgt id='22'> +4.2613636e+02 </wgt>
<wgt id='23'> +5.0481800e+02 </wgt>
<wgt id='24'> +4.2599332e+02 </wgt>
<wgt id='25'> +5.0244472e+02 </wgt>
<wgt id='26'> +4.3930356e+02 </wgt>
<wgt id='27'> +4.2236086e+02 </wgt>
<wgt id='28'> +5.0244472e+02 </wgt>
<wgt id='29'> +4.2221602e+02 </wgt>
<wgt id='30'> +4.2774304e+02 </wgt>
<wgt id='31'> +3.8064045e+02 </wgt>
<wgt id='32'> +3.6770629e+02 </wgt>
<wgt id='33'> +4.2774304e+02 </wgt>
<wgt id='34'> +3.6759515e+02 </wgt>
<wgt id='35'> +4.2814920e+02 </wgt>
<wgt id='36'> +3.7929441e+02 </wgt>
<wgt id='37'> +3.6597761e+02 </wgt>
<wgt id='38'> +4.2814920e+02 </wgt>
<wgt id='39'> +3.6586336e+02 </wgt>
<wgt id='40'> +4.2613636e+02 </wgt>
<wgt id='41'> +3.7625667e+02 </wgt>
<wgt id='42'> +3.6273511e+02 </wgt>
<wgt id='43'> +4.2613636e+02 </wgt>
<wgt id='44'> +3.6261924e+02 </wgt>
<wgt id='45'> +5.0481800e+02 </wgt>
<wgt id='46'> +5.1614220e+02 </wgt>
<wgt id='47'> +4.9777259e+02 </wgt>
<wgt id='48'> +4.8511793e+02 </wgt>
<wgt id='49'> +5.5309119e+02 </wgt>
<wgt id='50'> +4.4487406e+02 </wgt>
<wgt id='51'> +4.7432298e+02 </wgt>
<wgt id='52'> +5.2932333e+02 </wgt>
<wgt id='53'> +5.4555895e+02 </wgt>
<wgt id='54'> +4.9656022e+02 </wgt>
<wgt id='55'> +5.0368617e+02 </wgt>
<wgt id='56'> +4.7735833e+02 </wgt>
<wgt id='57'> +4.2740306e+02 </wgt>
<wgt id='58'> +6.0129921e+02 </wgt>
<wgt id='59'> +5.4113407e+02 </wgt>
<wgt id='60'> +5.0657802e+02 </wgt>
<wgt id='61'> +4.4133891e+02 </wgt>
<wgt id='62'> +5.0611119e+02 </wgt>
<wgt id='63'> +5.2066140e+02 </wgt>
<wgt id='64'> +4.6750294e+02 </wgt>
<wgt id='65'> +4.4684253e+02 </wgt>
<wgt id='66'> +4.7342750e+02 </wgt>
<wgt id='67'> +5.3008383e+02 </wgt>
<wgt id='68'> +4.6078879e+02 </wgt>
<wgt id='69'> +4.6240673e+02 </wgt>
<wgt id='70'> +5.8861347e+02 </wgt>
<wgt id='71'> +4.6307743e+02 </wgt>
<wgt id='72'> +4.5362986e+02 </wgt>
<wgt id='73'> +5.4768853e+02 </wgt>
<wgt id='74'> +4.9181039e+02 </wgt>
<wgt id='75'> +4.5805592e+02 </wgt>
<wgt id='76'> +4.9606695e+02 </wgt>
<wgt id='77'> +5.0206611e+02 </wgt>
<wgt id='78'> +4.7181866e+02 </wgt>
<wgt id='79'> +5.1953414e+02 </wgt>
<wgt id='80'> +4.3832926e+02 </wgt>
<wgt id='81'> +5.4070692e+02 </wgt>
<wgt id='82'> +5.3198710e+02 </wgt>
<wgt id='83'> +4.9095602e+02 </wgt>
<wgt id='84'> +5.2831403e+02 </wgt>
<wgt id='85'> +5.0621825e+02 </wgt>
<wgt id='86'> +5.8643878e+02 </wgt>
<wgt id='87'> +5.3280250e+02 </wgt>
<wgt id='88'> +4.6875009e+02 </wgt>
<wgt id='89'> +6.3738203e+02 </wgt>
<wgt id='90'> +5.6025560e+02 </wgt>
<wgt id='91'> +4.5371671e+02 </wgt>
<wgt id='92'> +4.8366950e+02 </wgt>
<wgt id='93'> +4.8946505e+02 </wgt>
<wgt id='94'> +5.3552681e+02 </wgt>
<wgt id='95'> +4.6951219e+02 </wgt>
<wgt id='96'> +5.0584661e+02 </wgt>
<wgt id='97'> +4.9375473e+02 </wgt>
<wgt id='98'> +5.2317618e+02 </wgt>
<wgt id='99'> +5.3810610e+02 </wgt>
<wgt id='100'> +4.1291269e+02 </wgt>
<wgt id='101'> +5.3403905e+02 </wgt>
<wgt id='102'> +5.2875168e+02 </wgt>
<wgt id='103'> +5.6511791e+02 </wgt>
<wgt id='104'> +4.8981865e+02 </wgt>
<wgt id='105'> +5.1506303e+02 </wgt>
<wgt id='106'> +4.9806187e+02 </wgt>
<wgt id='107'> +5.2863716e+02 </wgt>
<wgt id='108'> +4.4175682e+02 </wgt>
<wgt id='109'> +5.0187206e+02 </wgt>
<wgt id='110'> +5.2044832e+02 </wgt>
<wgt id='111'> +4.8031212e+02 </wgt>
<wgt id='112'> +4.3786851e+02 </wgt>
<wgt id='113'> +5.1604735e+02 </wgt>
<wgt id='114'> +5.0424782e+02 </wgt>
<wgt id='115'> +4.2164316e+02 </wgt>
<wgt id='116'> +5.3844379e+02 </wgt>
<wgt id='117'> +4.5348215e+02 </wgt>
<wgt id='118'> +5.1519478e+02 </wgt>
<wgt id='119'> +5.6379286e+02 </wgt>
<wgt id='120'> +5.0627646e+02 </wgt>
<wgt id='121'> +5.2529806e+02 </wgt>
<wgt id='122'> +5.0666714e+02 </wgt>
<wgt id='123'> +5.2424736e+02 </wgt>
<wgt id='124'> +4.9752435e+02 </wgt>
<wgt id='125'> +4.7582654e+02 </wgt>
<wgt id='126'> +5.1540767e+02 </wgt>
<wgt id='127'> +5.4228064e+02 </wgt>
<wgt id='128'> +4.9327474e+02 </wgt>
<wgt id='129'> +5.4173039e+02 </wgt>
<wgt id='130'> +4.2670569e+02 </wgt>
<wgt id='131'> +5.3892267e+02 </wgt>
<wgt id='132'> +4.9964878e+02 </wgt>
<wgt id='133'> +6.3923651e+02 </wgt>
<wgt id='134'> +4.5780871e+02 </wgt>
<wgt id='135'> +4.6654013e+02 </wgt>
<wgt id='136'> +5.6583824e+02 </wgt>
<wgt id='137'> +5.1399241e+02 </wgt>
<wgt id='138'> +4.7950596e+02 </wgt>
<wgt id='139'> +5.9991595e+02 </wgt>
<wgt id='140'> +4.5625882e+02 </wgt>
<wgt id='141'> +5.2417012e+02 </wgt>
<wgt id='142'> +4.2720958e+02 </wgt>
<wgt id='143'> +5.2269666e+02 </wgt>
<wgt id='144'> +4.9693334e+02 </wgt>
<wgt id='145'> +5.4125851e+02 </wgt>
</rwgt>
</event>
<event>
 4      1 +5.0481800e+02 3.26270900e+02 7.54677100e-03 1.07279900e-01
       21 -1    0    0  501  502 +0.0000000000e+00 +0.0000000000e+00 +3.6848305033e+02 3.6848305033e+02 0.0000000000e+00 0.0000e+00 -1.0000e+00
       21 -1    0    0  502  503 -0.0000000000e+00 -0.0000000000e+00 -4.2180909156e+02 4.2180909156e+02 0.0000000000e+00 0.0000e+00 -1.0000e+00
        6  1    1    2  501    0 +3.9129705036e+01 -2.7384768864e+02 +1.9514956835e+02 3.8017896367e+02 1.7300000000e+02 0.0000e+00 -1.0000e+00
       -6  1    1    2    0  503 -3.9129705036e+01 +2.7384768864e+02 -2.4847560958e+02 4.1011317822e+02 1.7300000000e+02 0.0000e+00 -1.0000e+00
<mgrwt>
<rscale>  2 0.32627088E+03</rscale>
<asrwt>0</asrwt>
<pdfrwt beam="1">  1       21 0.56689700E-01 0.32627088E+03</pdfrwt>
<pdfrwt beam="2">  1       21 0.64893706E-01 0.32627088E+03</pdfrwt>
<totfact> 0.59164259E+03</totfact>
</mgrwt>
<rwgt>
<wgt id='1'> +6.6748110e+02 </wgt>
<wgt id='2'> +5.1639399e+02 </wgt>
<wgt id='3'> +5.0481800e+02 </wgt>
<wgt id='4'> +6.6748109e+02 </wgt>
<wgt id='5'> +4.6922613e+02 </wgt>
<wgt id='6'> +6.0293634e+02 </wgt>
<wgt id='7'> +4.6702630e+02 </wgt>
<wgt id='8'> +4.5669315e+02 </wgt>
<wgt id='9'> +6.0293634e+02 </wgt>
<wgt id='10'> +4.2491139e+02 </wgt>
<wgt id='11'> +5.4545777e+02 </wgt>
<wgt id='12'> +4.2391516e+02 </wgt>
<wgt id='13'> +4.1466327e+02 </wgt>
<wgt id='14'> +5.4545776e+02 </wgt>
<wgt id='15'> +3.8619447e+02 </wgt>
<wgt id='16'> +5.5885912e+02 </wgt>
<wgt id='17'> +4.3889369e+02 </wgt>
<wgt id='18'> +4.2952644e+02 </wgt>
<wgt id='19'> +5.5885911e+02 </wgt>
<wgt id='20'> +4.0063728e+02 </wgt>
<wgt id='21'> +3.9693509e+02 </wgt>
<wgt id='22'> +3.8857922e+02 </wgt>
<wgt id='23'> +5.0481800e+02 </wgt>
<wgt id='24'> +3.6280022e+02 </wgt>
<wgt id='25'> +4.5669315e+02 </wgt>
<wgt id='26'> +3.6029406e+02 </wgt>
<wgt id='27'> +3.5281793e+02 </wgt>
<wgt id='28'> +4.5669315e+02 </wgt>
<wgt id='29'> +3.2974273e+02 </wgt>
<wgt id='30'> +4.7550755e+02 </wgt>
<wgt id='31'> +3.7761750e+02 </wgt>
<wgt id='32'> +3.6990443e+02 </wgt>
<wgt id='33'> +4.7550755e+02 </wgt>
<wgt id='34'> +3.4605813e+02 </wgt>
<wgt id='35'> +4.2952645e+02 </wgt>
<wgt id='36'> +3.4151695e+02 </wgt>
<wgt id='37'> +3.3464104e+02 </wgt>
<wgt id='38'> +4.2952644e+02 </wgt>
<wgt id='39'> +3.1337564e+02 </wgt>
<wgt id='40'> +3.8857922e+02 </wgt>
<wgt id='41'> +3.0999156e+02 </wgt>
<wgt id='42'> +3.0384372e+02 </wgt>
<wgt id='43'> +3.8857922e+02 </wgt>
<wgt id='44'> +2.8482160e+02 </wgt>
<wgt id='45'> +5.0481800e+02 </wgt>
<wgt id='46'> +5.2183956e+02 </wgt>
<wgt id='47'> +5.3037692e+02 </wgt>
<wgt id='48'> +5.1592146e+02 </wgt>
<wgt id='49'> +4.9975506e+02 </wgt>
<wgt id='50'> +6.3137906e+02 </wgt>
<wgt id='51'> +4.9424727e+02 </wgt>
<wgt id='52'> +5.0499129e+02 </wgt>
<wgt id='53'> +4.9675468e+02 </wgt>
<wgt id='54'> +5.0978704e+02 </wgt>
<wgt id='55'> +4.5883803e+02 </wgt>
<wgt id='56'> +4.5290543e+02 </wgt>
<wgt id='57'> +4.9650576e+02 </wgt>
<wgt id='58'> +4.9030306e+02 </wgt>
<wgt id='59'> +5.2080179e+02 </wgt>
<wgt id='60'> +5.0343653e+02 </wgt>
<wgt id='61'> +4.4905290e+02 </wgt>
<wgt id='62'> +4.9941411e+02 </wgt>
<wgt id='63'> +5.0597517e+02 </wgt>
<wgt id='64'> +4.8596074e+02 </wgt>
<wgt id='65'> +5.8110513e+02 </wgt>
<wgt id='66'> +4.9748628e+02 </wgt>
<wgt id='67'> +5.0877254e+02 </wgt>
<wgt id='68'> +5.6358377e+02 </wgt>
<wgt id='69'> +5.1474856e+02 </wgt>
<wgt id='70'> +4.9531024e+02 </wgt>
<wgt id='71'> +5.1179483e+02 </wgt>
<wgt id='72'> +4.6470492e+02 </wgt>
<wgt id='73'> +4.8777438e+02 </wgt>
<wgt id='74'> +5.4005387e+02 </wgt>
<wgt id='75'> +5.2054979e+02 </wgt>
<wgt id='76'> +4.8979542e+02 </wgt>
<wgt id='77'> +4.9714480e+02 </wgt>
<wgt id='78'> +4.8210332e+02 </wgt>
<wgt id='79'> +4.9837642e+02 </wgt>
<wgt id='80'> +4.9127224e+02 </wgt>
<wgt id='81'> +4.9065834e+02 </wgt>
<wgt id='82'> +5.0332500e+02 </wgt>
<wgt id='83'> +5.2105636e+02 </wgt>
<wgt id='84'> +5.5724406e+02 </wgt>
<wgt id='85'> +5.2415517e+02 </wgt>
<wgt id='86'> +5.1259449e+02 </wgt>
<wgt id='87'> +5.1054779e+02 </wgt>
<wgt id='88'> +5.1554690e+02 </wgt>
<wgt id='89'> +5.1936789e+02 </wgt>
<wgt id='90'> +5.1595392e+02 </wgt>
<wgt id='91'> +5.2534009e+02 </wgt>
<wgt id='92'> +4.3996022e+02 </wgt>
<wgt id='93'> +5.0596707e+02 </wgt>
<wgt id='94'> +4.8816682e+02 </wgt>
<wgt id='95'> +4.8337313e+02 </wgt>
<wgt id='96'> +5.6162263e+02 </wgt>
<wgt id='97'> +4.9945332e+02 </wgt>
<wgt id='98'> +4.9005849e+02 </wgt>
<wgt id='99'> +4.7933766e+02 </wgt>
<wgt id='100'> +4.6716153e+02 </wgt>
<wgt id='101'> +5.6810634e+02 </wgt>
<wgt id='102'> +5.2485403e+02 </wgt>
<wgt id='103'> +5.5627730e+02 </wgt>
<wgt id='104'> +5.1442732e+02 </wgt>
<wgt id='105'> +5.1375763e+02 </wgt>
<wgt id='106'> +4.4241617e+02 </wgt>
<wgt id='107'> +4.7081459e+02 </wgt>
<wgt id='108'> +4.3017697e+02 </wgt>
<wgt id='109'> +4.6172931e+02 </wgt>
<wgt id='110'> +4.9811676e+02 </wgt>
<wgt id='111'> +4.8368321e+02 </wgt>
<wgt id='112'> +4.6875294e+02 </wgt>
<wgt id='113'> +4.5573807e+02 </wgt>
<wgt id='114'> +4.7871170e+02 </wgt>
<wgt id='115'> +4.7412732e+02 </wgt>
<wgt id='116'> +5.3174569e+02 </wgt>
<wgt id='117'> +4.9909361e+02 </wgt>
<wgt id='118'> +5.3946176e+02 </wgt>
<wgt id='119'> +4.8183463e+02 </wgt>
<wgt id='120'> +4.8497345e+02 </wgt>
<wgt id='121'> +4.8487667e+02 </wgt>
<wgt id='122'> +4.9595030e+02 </wgt>
<wgt id='123'> +5.1506519e+02 </wgt>
<wgt id='124'> +5.6916250e+02 </wgt>
<wgt id='125'> +5.7041028e+02 </wgt>
<wgt id='126'> +5.3077231e+02 </wgt>
<wgt id='127'> +5.2519245e+02 </wgt>
<wgt id='128'> +4.5453719e+02 </wgt>
<wgt id='129'> +5.7514681e+02 </wgt>
<wgt id='130'> +5.0962371e+02 </wgt>
<wgt id='131'> +5.3289374e+02 </wgt>
<wgt id='132'> +5.2439220e+02 </wgt>
<wgt id='133'> +5.2257988e+02 </wgt>
<wgt id='134'> +4.8440998e+02 </wgt>
<wgt id='135'> +5.1472794e+02 </wgt>
<wgt id='136'> +5.0890599e+02 </wgt>
<wgt id='137'> +4.8574624e+02 </wgt>
<wgt id='138'> +4.8344480e+02 </wgt>
<wgt id='139'> +5.2363918e+02 </wgt>
<wgt id='140'> +5.2149308e+02 </wgt>
<wgt id='141'> +5.1311845e+02 </wgt>
<wgt id='142'> +4.7649037e+02 </wgt>
<wgt id='143'> +5.1318935e+02 </wgt>
<wgt id='144'> +4.8999795e+02 </wgt>
<wgt id='145'> +5.0472651e+02 </wgt>
</rwgt>
</event>
<event>
 4      1 +5.0481800e+02 1.80051100e+02 7.54677100e-03 1.16775400e-01
       21 -1    0    0  501  502 +0.0000000000e+00 +0.0000000000e+00 +2.9292522719e+03 2.9292522719e+03 0.0000000000e+00 0.0000e+00 -1.0000e+00
       21 -1    0    0  502  503 -0.0000000000e+00 -0.0000000000e+00 -1.1533542407e+01 1.1533542407e+01 0.0000000000e+00 0.0000e+00 1.0000e+00
        6  1    1    2  501    0 +4.8452018952e+01 -1.1908226931e+01 +1.7545509362e+03 1.7637651180e+03 1.7300000000e+02 0.0000e+00 1.0000e+00
       -6  1    1    2    0  503 -4.8452018952e+01 +1.1908226931e+01 +1.1631677933e+03 1.1770206963e+03 1.7300000000e+02 0.0000e+00 1.0000e+00
<mgrwt>
<rscale>  2 0.18005111E+03</rscale>
<asrwt>0</asrwt>
<pdfrwt beam="1">  1       21 0.45065360E+00 0.18005111E+03</pdfrwt>
<pdfrwt beam="2">  1       21 0.17743935E-02 0.18005111E+03</pdfrwt>
<totfact> 0.62728940E+03</totfact>
</mgrwt>
<rwgt>
<wgt id='1'> +7.4754498e+02 </wgt>
<wgt id='2'> +1.0730708e+03 </wgt>
<wgt id='3'> +5.0481799e+02 </wgt>
<wgt id='4'> +7.4754497e+02 </wgt>
<wgt id='5'> +4.9924016e+02 </wgt>
<wgt id='6'> +6.2142228e+02 </wgt>
<wgt id='7'> +8.8053867e+02 </wgt>
<wgt id='8'> +4.2018960e+02 </wgt>
<wgt id='9'> +6.2142227e+02 </wgt>
<wgt id='10'> +4.1567215e+02 </wgt>
<wgt id='11'> +5.1724619e+02 </wgt>
<wgt id='12'> +7.3242248e+02 </wgt>
<wgt id='13'> +3.5514922e+02 </wgt>
<wgt id='14'> +5.1724618e+02 </wgt>
<wgt id='15'> +3.5148418e+02 </wgt>
<wgt id='16'> +6.0727491e+02 </wgt>
<wgt id='17'> +8.5337589e+02 </wgt>
<wgt id='18'> +4.2415382e+02 </wgt>
<wgt id='19'> +6.0727490e+02 </wgt>
<wgt id='20'> +4.1973670e+02 </wgt>
<wgt id='21'> +7.0026181e+02 </wgt>
<wgt id='22'> +3.5304809e+02 </wgt>
<wgt id='23'> +5.0481799e+02 </wgt>
<wgt id='24'> +3.4947680e+02 </wgt>
<wgt id='25'> +4.2018961e+02 </wgt>
<wgt id='26'> +5.8247015e+02 </wgt>
<wgt id='27'> +2.9840042e+02 </wgt>
<wgt id='28'> +4.2018960e+02 </wgt>
<wgt id='29'> +2.9551070e+02 </wgt>
<wgt id='30'> +5.1023929e+02 </wgt>
<wgt id='31'> +6.9697596e+02 </wgt>
<wgt id='32'> +3.6155793e+02 </wgt>
<wgt id='33'> +5.1023928e+02 </wgt>
<wgt id='34'> +3.5792747e+02 </wgt>
<wgt id='35'> +4.2415383e+02 </wgt>
<wgt id='36'> +5.7192341e+02 </wgt>
<wgt id='37'> +3.0094586e+02 </wgt>
<wgt id='38'> +4.2415382e+02 </wgt>
<wgt id='39'> +2.9801384e+02 </wgt>
<wgt id='40'> +3.5304809e+02 </wgt>
<wgt id='41'> +4.7571966e+02 </wgt>
<wgt id='42'> +2.5436300e+02 </wgt>
<wgt id='43'> +3.5304809e+02 </wgt>
<wgt id='44'> +2.5199463e+02 </wgt>
<wgt id='45'> +5.0481800e+02 </wgt>
<wgt id='46'> +5.0720231e+02 </wgt>
<wgt id='47'> +6.2734919e+02 </wgt>
<wgt id='48'> +4.5273872e+02 </wgt>
<wgt id='49'> +3.9260974e+02 </wgt>
<wgt id='50'> +7.3689866e+02 </wgt>
<wgt id='51'> +5.7937854e+02 </wgt>
<wgt id='52'> +3.8427484e+02 </wgt>
<wgt id='53'> +6.2271978e+02 </wgt>
<wgt id='54'> +5.1679004e+02 </wgt>
<wgt id='55'> +6.5689175e+02 </wgt>
<wgt id='56'> +4.7196888e+02 </wgt>
<wgt id='57'> +6.3500180e+02 </wgt>
<wgt id='58'> +3.9894679e+02 </wgt>
<wgt id='59'> +6.0085471e+02 </wgt>
<wgt id='60'> +5.2647560e+02 </wgt>
<wgt id='61'> +3.8148499e+02 </wgt>
<wgt id='62'> +4.2185047e+02 </wgt>
<wgt id='63'> +5.6071727e+02 </wgt>
<wgt id='64'> +5.0567928e+02 </wgt>
<wgt id='65'> +3.5045462e+02 </wgt>
<wgt id='66'> +4.8053728e+02 </wgt>
<wgt id='67'> +4.7157185e+02 </wgt>
<wgt id='68'> +8.4477416e+02 </wgt>
<wgt id='69'> +6.0612917e+02 </wgt>
<wgt id='70'> +7.9513803e+02 </wgt>
<wgt id='71'> +4.3815173e+02 </wgt>
<wgt id='72'> +3.8193674e+02 </wgt>
<wgt id='73'> +3.5905535e+02 </wgt>
<wgt id='74'> +7.9573010e+02 </wgt>
<wgt id='75'> +5.8834263e+02 </wgt>
<wgt id='76'> +4.3519320e+02 </wgt>
<wgt id='77'> +3.9259161e+02 </wgt>
<wgt id='78'> +4.2922068e+02 </wgt>
<wgt id='79'> +5.3811384e+02 </wgt>
<wgt id='80'> +2.4453836e+02 </wgt>
<wgt id='81'> +5.7028800e+02 </wgt>
<wgt id='82'> +4.4377519e+02 </wgt>
<wgt id='83'> +5.1495548e+02 </wgt>
<wgt id='84'> +3.4792339e+02 </wgt>
<wgt id='85'> +4.3859290e+02 </wgt>
<wgt id='86'> +4.4880381e+02 </wgt>
<wgt id='87'> +4.2661034e+02 </wgt>
<wgt id='88'> +5.6739120e+02 </wgt>
<wgt id='89'> +2.4940159e+02 </wgt>
<wgt id='90'> +3.8553215e+02 </wgt>
<wgt id='91'> +3.3600436e+02 </wgt>
<wgt id='92'> +4.1987628e+02 </wgt>
<wgt id='93'> +5.7392322e+02 </wgt>
<wgt id='94'> +3.2190367e+02 </wgt>
<wgt id='95'> +5.4319439e+02 </wgt>
<wgt id='96'> +3.9460307e+02 </wgt>
<wgt id='97'> +4.0459976e+02 </wgt>
<wgt id='98'> +6.8392408e+02 </wgt>
<wgt id='99'> +3.6487165e+02 </wgt>
<wgt id='100'> +2.9415611e+02 </wgt>
<wgt id='101'> +7.3349892e+02 </wgt>
<wgt id='102'> +7.0054647e+02 </wgt>
<wgt id='103'> +4.2380424e+02 </wgt>
<wgt id='104'> +5.4334662e+02 </wgt>
<wgt id='105'> +5.6610231e+02 </wgt>
<wgt id='106'> +4.8052729e+02 </wgt>
<wgt id='107'> +5.3220892e+02 </wgt>
<wgt id='108'> +4.6401713e+02 </wgt>
<wgt id='109'> +5.7185972e+02 </wgt>
<wgt id='110'> +2.7330689e+02 </wgt>
<wgt id='111'> +4.7072472e+02 </wgt>
<wgt id='112'> +5.3561759e+02 </wgt>
<wgt id='113'> +6.6072569e+02 </wgt>
<wgt id='114'> +2.9356185e+02 </wgt>
<wgt id='115'> +4.4331494e+02 </wgt>
<wgt id='116'> +6.5197558e+02 </wgt>
<wgt id='117'> +5.7184677e+02 </wgt>
<wgt id='118'> +5.3437775e+02 </wgt>
<wgt id='119'> +5.2026621e+02 </wgt>
<wgt id='120'> +4.1638933e+02 </wgt>
<wgt id='121'> +4.6222616e+02 </wgt>
<wgt id='122'> +4.0658205e+02 </wgt>
<wgt id='123'> +4.2061094e+02 </wgt>
<wgt id='124'> +6.1044730e+02 </wgt>
<wgt id='125'> +9.4076270e+02 </wgt>
<wgt id='126'> +4.8703014e+02 </wgt>
<wgt id='127'> +4.7805070e+02 </wgt>
<wgt id='128'> +5.1206373e+02 </wgt>
<wgt id='129'> +4.7566276e+02 </wgt>
<wgt id='130'> +4.1476508e+02 </wgt>
<wgt id='131'> +3.7386488e+02 </wgt>
<wgt id='132'> +5.4224456e+02 </wgt>
<wgt id='133'> +5.1145214e+02 </wgt>
<wgt id='134'> +6.7382415e+02 </wgt>
<wgt id='135'> +4.7783615e+02 </wgt>
<wgt id='136'> +7.0867505e+02 </wgt>
<wgt id='137'> +5.6370622e+02 </wgt>
<wgt id='138'> +6.5835135e+02 </wgt>
<wgt id='139'> +5.6017833e+02 </wgt>
<wgt id='140'> +4.5636819e+02 </wgt>
<wgt id='141'> +7.8947411e+02 </wgt>
<wgt id='142'> +2.1095973e+02 </wgt>
<wgt id='143'> +5.8002650e+02 </wgt>
<wgt id='144'> +4.1901986e+02 </wgt>
<wgt id='145'> +3.8778749e+02 </wgt>
</rwgt>
</event>
<event>
 4      1 +5.0481800e+02 1.84282100e+02 7.54677100e-03 1.16372200e-01
       -2 -1    0    0    0  501 -0.0000000000e+00 +0.0000000000e+00 +6.5319816426e+01 6.5319816426e+01 0.0000000000e+00 0.0000e+00 1.0000e+00
        2 -1    0    0  502    0 +0.0000000000e+00 -0.0000000000e+00 -7.1593757778e+02 7.1593757778e+02 0.0000000000e+00 0.0000e+00 -1.0000e+00
        6  1    1    2  502    0 +5.7173451507e+01 -2.7605709174e+01 -5.2971525239e+02 5.6085481843e+02 1.7300000000e+02 0.0000e+00 -1.0000e+00
       -6  1    1    2    0  501 -5.7173451507e+01 +2.7605709174e+01 -1.2090250896e+02 2.2040257578e+02 1.7300000000e+02 0.0000e+00 1.0000e+00
<mgrwt>
<rscale>  2 0.18428206E+03</rscale>
<asrwt>0</asrwt>
<pdfrwt beam="2">  1        2 0.11014425E+00 0.18428206E+03</pdfrwt>
<pdfrwt beam="1">  1       -2 0.10049202E-01 0.18428206E+03</pdfrwt>
<totfact> 0.26577402E+03</totfact>
</mgrwt>
<rwgt>
<wgt id='1'> +6.0789561e+02 </wgt>
<wgt id='2'> +6.2272117e+02 </wgt>
<wgt id='3'> +5.0481800e+02 </wgt>
<wgt id='4'> +6.0789560e+02 </wgt>
<wgt id='5'> +4.8598112e+02 </wgt>
<wgt id='6'> +6.2074448e+02 </wgt>
<wgt id='7'> +6.3654718e+02 </wgt>
<wgt id='8'> +5.1166095e+02 </wgt>
<wgt id='9'> +6.2074448e+02 </wgt>
<wgt id='10'> +4.9183239e+02 </wgt>
<wgt id='11'> +6.2915885e+02 </wgt>
<wgt id='12'> +6.4571404e+02 </wgt>
<wgt id='13'> +5.1556497e+02 </wgt>
<wgt id='14'> +6.2915885e+02 </wgt>
<wgt id='15'> +4.9501740e+02 </wgt>
<wgt id='16'> +4.9436870e+02 </wgt>
<wgt id='17'> +5.0443337e+02 </wgt>
<wgt id='18'> +4.2445962e+02 </wgt>
<wgt id='19'> +4.9436870e+02 </wgt>
<wgt id='20'> +4.1019572e+02 </wgt>
<wgt id='21'> +5.1563308e+02 </wgt>
<wgt id='22'> +4.3021329e+02 </wgt>
<wgt id='23'> +5.0481800e+02 </wgt>
<wgt id='24'> +4.1513452e+02 </wgt>
<wgt id='25'> +5.1166095e+02 </wgt>
<wgt id='26'> +5.2305868e+02 </wgt>
<wgt id='27'> +4.3349586e+02 </wgt>
<wgt id='28'> +5.1166095e+02 </wgt>
<wgt id='29'> +4.1782285e+02 </wgt>
<wgt id='30'> +4.1567367e+02 </wgt>
<wgt id='31'> +4.2293582e+02 </wgt>
<wgt id='32'> +3.6197196e+02 </wgt>
<wgt id='33'> +4.1567367e+02 </wgt>
<wgt id='34'> +3.5081627e+02 </wgt>
<wgt id='35'> +4.2445962e+02 </wgt>
<wgt id='36'> +4.3232608e+02 </wgt>
<wgt id='37'> +3.6687859e+02 </wgt>
<wgt id='38'> +4.2445962e+02 </wgt>
<wgt id='39'> +3.5504013e+02 </wgt>
<wgt id='40'> +4.3021329e+02 </wgt>
<wgt id='41'> +4.3855197e+02 </wgt>
<wgt id='42'> +3.6967791e+02 </wgt>
<wgt id='43'> +4.3021329e+02 </wgt>
<wgt id='44'> +3.5733930e+02 </wgt>
<wgt id='45'> +5.0481800e+02 </wgt>
<wgt id='46'> +5.0244107e+02 </wgt>
<wgt id='47'> +4.8783250e+02 </wgt>
<wgt id='48'> +4.9739780e+02 </wgt>
<wgt id='49'> +5.0080694e+02 </wgt>
<wgt id='50'> +4.6242066e+02 </wgt>
<wgt id='51'> +5.1703811e+02 </wgt>
<wgt id='52'> +4.9113072e+02 </wgt>
<wgt id='53'> +5.1849454e+02 </wgt>
<wgt id='54'> +4.9489493e+02 </wgt>
<wgt id='55'> +4.8806932e+02 </wgt>
<wgt id='56'> +5.4160943e+02 </wgt>
<wgt id='57'> +4.9762550e+02 </wgt>
<wgt id='58'> +5.1793720e+02 </wgt>
<wgt id='59'> +4.8182482e+02 </wgt>
<wgt id='60'> +5.0392753e+02 </wgt>
<wgt id='61'> +5.5783984e+02 </wgt>
<wgt id='62'> +5.2769652e+02 </wgt>
<wgt id='63'> +5.0546639e+02 </wgt>
<wgt id='64'> +5.0114720e+02 </wgt>
<wgt id='65'> +4.9854515e+02 </wgt>
<wgt id='66'> +5.2915448e+02 </wgt>
<wgt id='67'> +5.1254758e+02 </wgt>
<wgt id='68'> +4.2138698e+02 </wgt>
<wgt id='69'> +4.7443304e+02 </wgt>
<wgt id='70'> +4.8889694e+02 </wgt>
<wgt id='71'> +5.2217976e+02 </wgt>
<wgt id='72'> +5.2651192e+02 </wgt>
<wgt id='73'> +5.1600139e+02 </wgt>
<wgt id='74'> +4.5347164e+02 </wgt>
<wgt id='75'> +4.7573422e+02 </wgt>
<wgt id='76'> +5.2629878e+02 </wgt>
<wgt id='77'> +5.2425244e+02 </wgt>
<wgt id='78'> +5.3388025e+02 </wgt>
<wgt id='79'> +5.0965531e+02 </wgt>
<wgt id='80'> +5.4620837e+02 </wgt>
<wgt id='81'> +5.0503969e+02 </wgt>
<wgt id='82'> +5.0590210e+02 </wgt>
<wgt id='83'> +4.8695344e+02 </wgt>
<wgt id='84'> +5.0189706e+02 </wgt>
<wgt id='85'> +5.0152152e+02 </wgt>
<wgt id='86'> +4.9822159e+02 </wgt>
<wgt id='87'> +5.0820775e+02 </wgt>
<wgt id='88'> +5.0948077e+02 </wgt>
<wgt id='89'> +5.0473914e+02 </wgt>
<wgt id='90'> +5.4161648e+02 </wgt>
<wgt id='91'> +4.8333495e+02 </wgt>
<wgt id='92'> +5.3942608e+02 </wgt>
<wgt id='93'> +4.8857699e+02 </wgt>
<wgt id='94'> +5.0838014e+02 </wgt>
<wgt id='95'> +5.0294090e+02 </wgt>
<wgt id='96'> +4.8900429e+02 </wgt>
<wgt id='97'> +5.2432581e+02 </wgt>
<wgt id='98'> +5.1234878e+02 </wgt>
<wgt id='99'> +5.2643625e+02 </wgt>
<wgt id='100'> +5.5976988e+02 </wgt>
<wgt id='101'> +4.3921325e+02 </wgt>
<wgt id='102'> +4.6696594e+02 </wgt>
<wgt id='103'> +4.8003568e+02 </wgt>
<wgt id='104'> +4.9301696e+02 </wgt>
<wgt id='105'> +5.0100595e+02 </wgt>
<wgt id='106'> +5.3917956e+02 </wgt>
<wgt id='107'> +5.0290465e+02 </wgt>
<wgt id='108'> +5.6380074e+02 </wgt>
<wgt id='109'> +5.3148633e+02 </wgt>
<wgt id='110'> +5.2635425e+02 </wgt>
<wgt id='111'> +5.3074513e+02 </wgt>
<wgt id='112'> +5.2075397e+02 </wgt>
<wgt id='113'> +5.0858550e+02 </wgt>
<wgt id='114'> +5.1229497e+02 </wgt>
<wgt id='115'> +5.3654411e+02 </wgt>
<wgt id='116'> +4.8486132e+02 </wgt>
<wgt id='117'> +5.0578137e+02 </wgt>
<wgt id='118'> +4.6956445e+02 </wgt>
<wgt id='119'> +5.0370946e+02 </wgt>
<wgt id='120'> +5.0231384e+02 </wgt>
<wgt id='121'> +5.0970366e+02 </wgt>
<wgt id='122'> +5.1983233e+02 </wgt>
<wgt id='123'> +5.4169359e+02 </wgt>
<wgt id='124'> +4.6910580e+02 </wgt>
<wgt id='125'> +4.3820284e+02 </wgt>
<wgt id='126'> +4.9833563e+02 </wgt>
<wgt id='127'> +4.9531874e+02 </wgt>
<wgt id='128'> +5.2404139e+02 </wgt>
<wgt id='129'> +4.6922854e+02 </wgt>
<wgt id='130'> +4.9852281e+02 </wgt>
<wgt id='131'> +4.9274759e+02 </wgt>
<wgt id='132'> +4.7011173e+02 </wgt>
<wgt id='133'> +4.8706328e+02 </wgt>
<wgt id='134'> +4.9528996e+02 </wgt>
<wgt id='135'> +4.9892248e+02 </wgt>
<wgt id='136'> +4.7979363e+02 </wgt>
<wgt id='137'> +5.2608031e+02 </wgt>
<wgt id='138'> +5.1600631e+02 </wgt>
<wgt id='139'> +4.8616018e+02 </wgt>
<wgt id='140'> +4.9227563e+02 </wgt>
<wgt id='141'> +4.7945057e+02 </wgt>
<wgt id='142'> +5.6656387e+02 </wgt>
<wgt id='143'> +5.2086128e+02 </wgt>
<wgt id='144'> +5.4199243e+02 </wgt>
<wgt id='145'> +5.1754529e+02 </wgt>
</rwgt>
</event>
<event>
 4      1 +5.0481800e+02 2.18573100e+02 7.54677100e-03 1.13495100e-01
       21 -1    0    0  503  502 +0.0000000000e+00 +0.0000000000e+00 +2.7727644628e+02 2.7727644628e+02 0.0000000000e+00 0.0000e+00 -1.0000e+00
       21 -1    0    0  501  503 -0.0000000000e+00 -0.0000000000e+00 -1.8340595751e+02 1.8340595751e+02 0.0000000000e+00 0.0000e+00 -1.0000e+00
        6  1    1    2  501    0 +1.2861854650e+02 -3.6089741566e+01 -9.7513552229e+00 2.1879051368e+02 1.7300000000e+02 0.0000e+00 -1.0000e+00
       -6  1    1    2    0  502 -1.2861854650e+02 +3.6089741566e+01 +1.0362184399e+02 2.4189189011e+02 1.7300000000e+02 0.0000e+00 -1.0000e+00
<mgrwt>
<rscale>  2 0.21857310E+03</rscale>
<asrwt>0</asrwt>
<pdfrwt beam="1">  1       21 0.42657915E-01 0.21857310E+03</pdfrwt>
<pdfrwt beam="2">  1       21 0.28216301E-01 0.21857310E+03</pdfrwt>
<totfact> 0.62720644E+04</totfact>
</mgrwt>
<rwgt>
<wgt id='1'> +6.4748812e+02 </wgt>
<wgt id='2'> +5.1653296e+02 </wgt>
<wgt id='3'> +5.0481800e+02 </wgt>
<wgt id='4'> +6.4748812e+02 </wgt>
<wgt id='5'> +4.9936575e+02 </wgt>
<wgt id='6'> +6.1522638e+02 </wgt>
<wgt id='7'> +4.8400008e+02 </wgt>
<wgt id='8'> +4.7302983e+02 </wgt>
<wgt id='9'> +6.1522638e+02 </wgt>
<wgt id='10'> +4.6793509e+02 </wgt>
<wgt id='11'> +5.7648584e+02 </wgt>
<wgt id='12'> +4.5348486e+02 </wgt>
<wgt id='13'> +4.4321678e+02 </wgt>
<wgt id='14'> +5.7648584e+02 </wgt>
<wgt id='15'> +4.3844927e+02 </wgt>
<wgt id='16'> +5.3129006e+02 </wgt>
<wgt id='17'> +4.3551060e+02 </wgt>
<wgt id='18'> +4.2618002e+02 </wgt>
<wgt id='19'> +5.3129006e+02 </wgt>
<wgt id='20'> +4.2182380e+02 </wgt>
<wgt id='21'> +4.0808076e+02 </wgt>
<wgt id='22'> +3.9934365e+02 </wgt>
<wgt id='23'> +5.0481800e+02 </wgt>
<wgt id='24'> +3.9527372e+02 </wgt>
<wgt id='25'> +4.7302983e+02 </wgt>
<wgt id='26'> +3.8235210e+02 </wgt>
<wgt id='27'> +3.7417473e+02 </wgt>
<wgt id='28'> +4.7302983e+02 </wgt>
<wgt id='29'> +3.7036649e+02 </wgt>
<wgt id='30'> +4.4852840e+02 </wgt>
<wgt id='31'> +3.7210225e+02 </wgt>
<wgt id='32'> +3.6455485e+02 </wgt>
<wgt id='33'> +4.4852840e+02 </wgt>
<wgt id='34'> +3.6102533e+02 </wgt>
<wgt id='35'> +4.2618002e+02 </wgt>
<wgt id='36'> +3.4866607e+02 </wgt>
<wgt id='37'> +3.4159899e+02 </wgt>
<wgt id='38'> +4.2618002e+02 </wgt>
<wgt id='39'> +3.3830198e+02 </wgt>
<wgt id='40'> +3.9934365e+02 </wgt>
<wgt id='41'> +3.2668339e+02 </wgt>
<wgt id='42'> +3.2006947e+02 </wgt>
<wgt id='43'> +3.9934365e+02 </wgt>
<wgt id='44'> +3.1698469e+02 </wgt>
<wgt id='45'> +5.0481800e+02 </wgt>
<wgt id='46'> +5.0493395e+02 </wgt>
<wgt id='47'> +5.2321714e+02 </wgt>
<wgt id='48'> +5.0653947e+02 </wgt>
<wgt id='49'> +5.0388232e+02 </wgt>
<wgt id='50'> +5.8973189e+02 </wgt>
<wgt id='51'> +4.9516522e+02 </wgt>
<wgt id='52'> +5.0169641e+02 </wgt>
<wgt id='53'> +5.1115589e+02 </wgt>
<wgt id='54'> +5.0768290e+02 </wgt>
<wgt id='55'> +4.5037626e+02 </wgt>
<wgt id='56'> +4.6986387e+02 </wgt>
<wgt id='57'> +4.9071867e+02 </wgt>
<wgt id='58'> +5.0798661e+02 </wgt>
<wgt id='59'> +4.9663896e+02 </wgt>
<wgt id='60'> +4.8360600e+02 </wgt>
<wgt id='61'> +4.9279468e+02 </wgt>
<wgt id='62'> +4.9838995e+02 </wgt>
<wgt id='63'> +5.0531676e+02 </wgt>
<wgt id='64'> +5.0014520e+02 </wgt>
<wgt id='65'> +5.9653780e+02 </wgt>
<wgt id='66'> +4.9301401e+02 </wgt>
<wgt id='67'> +5.0941373e+02 </wgt>
<wgt id='68'> +5.4052463e+02 </wgt>
<wgt id='69'> +4.9298990e+02 </wgt>
<wgt id='70'> +4.9640188e+02 </wgt>
<wgt id='71'> +5.1430537e+02 </wgt>
<wgt id='72'> +4.8972607e+02 </wgt>
<wgt id='73'> +4.9810543e+02 </wgt>
<wgt id='74'> +5.1978574e+02 </wgt>
<wgt id='75'> +5.1627144e+02 </wgt>
<wgt id='76'> +4.8967115e+02 </wgt>
<wgt id='77'> +4.8616158e+02 </wgt>
<wgt id='78'> +5.0551129e+02 </wgt>
<wgt id='79'> +4.8402713e+02 </wgt>
<wgt id='80'> +5.0063572e+02 </wgt>
<wgt id='81'> +4.9543850e+02 </wgt>
<wgt id='82'> +5.1892048e+02 </wgt>
<wgt id='83'> +5.1579099e+02 </wgt>
<wgt id='84'> +5.5513340e+02 </wgt>
<wgt id='85'> +5.3175630e+02 </wgt>
<wgt id='86'> +5.0176053e+02 </wgt>
<wgt id='87'> +5.0477205e+02 </wgt>
<wgt id='88'> +5.1411152e+02 </wgt>
<wgt id='89'> +5.1672081e+02 </wgt>
<wgt id='90'> +5.1010428e+02 </wgt>
<wgt id='91'> +5.3754859e+02 </wgt>
<wgt id='92'> +4.6367393e+02 </wgt>
<wgt id='93'> +4.9619718e+02 </wgt>
<wgt id='94'> +5.0208336e+02 </wgt>
<wgt id='95'> +4.8351447e+02 </wgt>
<wgt id='96'> +5.4623553e+02 </wgt>
<wgt id='97'> +5.1278090e+02 </wgt>
<wgt id='98'> +4.8138557e+02 </wgt>
<wgt id='99'> +4.9021485e+02 </wgt>
<wgt id='100'> +5.0098535e+02 </wgt>
<wgt id='101'> +5.2982422e+02 </wgt>
<wgt id='102'> +4.9003324e+02 </wgt>
<wgt id='103'> +5.4825957e+02 </wgt>
<wgt id='104'> +5.0428221e+02 </wgt>
<wgt id='105'> +5.2435420e+02 </wgt>
<wgt id='106'> +4.6398382e+02 </wgt>
<wgt id='107'> +4.9855223e+02 </wgt>
<wgt id='108'> +4.5239275e+02 </wgt>
<wgt id='109'> +4.7396357e+02 </wgt>
<wgt id='110'> +5.0555789e+02 </wgt>
<wgt id='111'> +4.9147510e+02 </wgt>
<wgt id='112'> +4.8193423e+02 </wgt>
<wgt id='113'> +4.6328185e+02 </wgt>
<wgt id='114'> +5.0349794e+02 </wgt>
<wgt id='115'> +5.0672050e+02 </wgt>
<wgt id='116'> +5.0444917e+02 </wgt>
<wgt id='117'> +5.1198181e+02 </wgt>
<wgt id='118'> +5.1751139e+02 </wgt>
<wgt id='119'> +4.8489215e+02 </wgt>
<wgt id='120'> +5.0361678e+02 </wgt>
<wgt id='121'> +4.9010482e+02 </wgt>
<wgt id='122'> +4.9813725e+02 </wgt>
<wgt id='123'> +5.1173640e+02 </wgt>
<wgt id='124'> +5.3867641e+02 </wgt>
<wgt id='125'> +5.3986628e+02 </wgt>
<wgt id='126'> +5.2465369e+02 </wgt>
<wgt id='127'> +5.1984763e+02 </wgt>
<wgt id='128'> +4.6936625e+02 </wgt>
<wgt id='129'> +5.7142837e+02 </wgt>
<wgt id='130'> +5.0953721e+02 </wgt>
<wgt id='131'> +5.4090645e+02 </wgt>
<wgt id='132'> +4.9823274e+02 </wgt>
<wgt id='133'> +5.0117797e+02 </wgt>
<wgt id='134'> +4.7438715e+02 </wgt>
<wgt id='135'> +5.1779037e+02 </wgt>
<wgt id='136'> +4.8280744e+02 </wgt>
<wgt id='137'> +4.7567964e+02 </wgt>
<wgt id='138'> +4.5971462e+02 </wgt>
<wgt id='139'> +5.1431347e+02 </wgt>
<wgt id='140'> +5.3691406e+02 </wgt>
<wgt id='141'> +5.0413845e+02 </wgt>
<wgt id='142'> +5.0876303e+02 </wgt>
<wgt id='143'> +4.9979937e+02 </wgt>
<wgt id='144'> +5.0420267e+02 </wgt>
<wgt id='145'> +5.0599039e+02 </wgt>
</rwgt>
</event>
<event>
 4      1 +5.0481800e+02 1.84907200e+02 7.54677100e-03 1.16313700e-01
       21 -1    0    0  501  502 +0.0000000000e+00 +0.0000000000e+00 +3.6535394650e+02 3.6535394650e+02 0.0000000000e+00 0.0000e+00 -1.0000e+00
       21 -1    0    0  502  503 -0.0000000000e+00 -0.0000000000e+00 -1.0197152563e+02 1.0197152563e+02 0.0000000000e+00 0.0000e+00 -1.0000e+00
        6  1    1    2  501    0 -3.8381441387e+01 +5.2806595967e+01 +1.9871211725e+02 2.7143540145e+02 1.7300000000e+02 0.0000e+00 -1.0000e+00
       -6  1    1    2    0  503 +3.8381441387e+01 -5.2806595967e+01 +6.4670303624e+01 1.9589007068e+02 1.7300000000e+02 0.0000e+00 -1.0000e+00
<mgrwt>
<rscale>  2 0.18490720E+03</rscale>
<asrwt>0</asrwt>
<pdfrwt beam="1">  1       21 0.56208299E-01 0.18490720E+03</pdfrwt>
<pdfrwt beam="2">  1       21 0.15687927E-01 0.18490720E+03</pdfrwt>
<totfact> 0.10798346E+05</totfact>
</mgrwt>
<rwgt>
<wgt id='1'> +6.4400155e+02 </wgt>
<wgt id='2'> +6.0124427e+02 </wgt>
<wgt id='3'> +5.0481800e+02 </wgt>
<wgt id='4'> +6.4400155e+02 </wgt>
<wgt id='5'> +4.9749670e+02 </wgt>
<wgt id='6'> +6.2065218e+02 </wgt>
<wgt id='7'> +5.7592320e+02 </wgt>
<wgt id='8'> +4.7713232e+02 </wgt>
<wgt id='9'> +6.2065219e+02 </wgt>
<wgt id='10'> +4.7000942e+02 </wgt>
<wgt id='11'> +5.8661382e+02 </wgt>
<wgt id='12'> +5.4387864e+02 </wgt>
<wgt id='13'> +4.5023541e+02 </wgt>
<wgt id='14'> +5.8661382e+02 </wgt>
<wgt id='15'> +4.4349518e+02 </wgt>
<wgt id='16'> +5.2380960e+02 </wgt>
<wgt id='17'> +4.9400126e+02 </wgt>
<wgt id='18'> +4.2450302e+02 </wgt>
<wgt id='19'> +5.2380960e+02 </wgt>
<wgt id='20'> +4.1886548e+02 </wgt>
<wgt id='21'> +4.7319667e+02 </wgt>
<wgt id='22'> +4.0122204e+02 </wgt>
<wgt id='23'> +5.0481800e+02 </wgt>
<wgt id='24'> +3.9572267e+02 </wgt>
<wgt id='25'> +4.7713232e+02 </wgt>
<wgt id='26'> +4.4686785e+02 </wgt>
<wgt id='27'> +3.7860435e+02 </wgt>
<wgt id='28'> +4.7713232e+02 </wgt>
<wgt id='29'> +3.7339910e+02 </wgt>
<wgt id='30'> +4.4047311e+02 </wgt>
<wgt id='31'> +4.1723522e+02 </wgt>
<wgt id='32'> +3.6203130e+02 </wgt>
<wgt id='33'> +4.4047312e+02 </wgt>
<wgt id='34'> +3.5750193e+02 </wgt>
<wgt id='35'> +4.2450302e+02 </wgt>
<wgt id='36'> +3.9966359e+02 </wgt>
<wgt id='37'> +3.4217645e+02 </wgt>
<wgt id='38'> +4.2450302e+02 </wgt>
<wgt id='39'> +3.3774953e+02 </wgt>
<wgt id='40'> +4.0122204e+02 </wgt>
<wgt id='41'> +3.7742617e+02 </wgt>
<wgt id='42'> +3.2288727e+02 </wgt>
<wgt id='43'> +4.0122204e+02 </wgt>
<wgt id='44'> +3.1869635e+02 </wgt>
<wgt id='45'> +5.0481800e+02 </wgt>
<wgt id='46'> +5.0455538e+02 </wgt>
<wgt id='47'> +5.2024395e+02 </wgt>
<wgt id='48'> +5.0524407e+02 </wgt>
<wgt id='49'> +5.0330508e+02 </wgt>
<wgt id='50'> +5.8195123e+02 </wgt>
<wgt id='51'> +4.9514725e+02 </wgt>
<wgt id='52'> +5.0261842e+02 </wgt>
<wgt id='53'> +5.0948754e+02 </wgt>
<wgt id='54'> +5.0785530e+02 </wgt>
<wgt id='55'> +4.5711055e+02 </wgt>
<wgt id='56'> +4.7125001e+02 </wgt>
<wgt id='57'> +4.9419907e+02 </wgt>
<wgt id='58'> +5.0888104e+02 </wgt>
<wgt id='59'> +5.0015607e+02 </wgt>
<wgt id='60'> +4.8720413e+02 </wgt>
<wgt id='61'> +4.8884289e+02 </wgt>
<wgt id='62'> +4.9777387e+02 </wgt>
<wgt id='63'> +5.0527024e+02 </wgt>
<wgt id='64'> +5.0071115e+02 </wgt>
<wgt id='65'> +5.8658029e+02 </wgt>
<wgt id='66'> +4.9302837e+02 </wgt>
<wgt id='67'> +5.0911816e+02 </wgt>
<wgt id='68'> +5.3978725e+02 </wgt>
<wgt id='69'> +4.9080743e+02 </wgt>
<wgt id='70'> +4.9728399e+02 </wgt>
<wgt id='71'> +5.1413425e+02 </wgt>
<wgt id='72'> +4.9511696e+02 </wgt>
<wgt id='73'> +4.9868559e+02 </wgt>
<wgt id='74'> +5.1907612e+02 </wgt>
<wgt id='75'> +5.1463468e+02 </wgt>
<wgt id='76'> +4.9241962e+02 </wgt>
<wgt id='77'> +4.8744955e+02 </wgt>
<wgt id='78'> +5.0398612e+02 </wgt>
<wgt id='79'> +4.8586363e+02 </wgt>
<wgt id='80'> +5.0040489e+02 </wgt>
<wgt id='81'> +4.9657737e+02 </wgt>
<wgt id='82'> +5.1618996e+02 </wgt>
<wgt id='83'> +5.1264926e+02 </wgt>
<wgt id='84'> +5.4956983e+02 </wgt>
<wgt id='85'> +5.2793683e+02 </wgt>
<wgt id='86'> +5.0077788e+02 </wgt>
<wgt id='87'> +5.0480423e+02 </wgt>
<wgt id='88'> +5.1109458e+02 </wgt>
<wgt id='89'> +5.1562657e+02 </wgt>
<wgt id='90'> +5.1117256e+02 </wgt>
<wgt id='91'> +5.3426566e+02 </wgt>
<wgt id='92'> +4.6977322e+02 </wgt>
<wgt id='93'> +4.9619324e+02 </wgt>
<wgt id='94'> +5.0261310e+02 </wgt>
<wgt id='95'> +4.8780238e+02 </wgt>
<wgt id='96'> +5.4043645e+02 </wgt>
<wgt id='97'> +5.1186985e+02 </wgt>
<wgt id='98'> +4.8327304e+02 </wgt>
<wgt id='99'> +4.9044007e+02 </wgt>
<wgt id='100'> +5.0115729e+02 </wgt>
<wgt id='101'> +5.2945850e+02 </wgt>
<wgt id='102'> +4.9109680e+02 </wgt>
<wgt id='103'> +5.4514252e+02 </wgt>
<wgt id='104'> +5.0283291e+02 </wgt>
<wgt id='105'> +5.2548382e+02 </wgt>
<wgt id='106'> +4.6840655e+02 </wgt>
<wgt id='107'> +4.9973231e+02 </wgt>
<wgt id='108'> +4.5570790e+02 </wgt>
<wgt id='109'> +4.7713178e+02 </wgt>
<wgt id='110'> +5.0635879e+02 </wgt>
<wgt id='111'> +4.9299571e+02 </wgt>
<wgt id='112'> +4.8283191e+02 </wgt>
<wgt id='113'> +4.6661049e+02 </wgt>
<wgt id='114'> +5.0460918e+02 </wgt>
<wgt id='115'> +5.0316986e+02 </wgt>
<wgt id='116'> +5.0339693e+02 </wgt>
<wgt id='117'> +5.0999082e+02 </wgt>
<wgt id='118'> +5.1613673e+02 </wgt>
<wgt id='119'> +4.8771841e+02 </wgt>
<wgt id='120'> +5.0088828e+02 </wgt>
<wgt id='121'> +4.9308985e+02 </wgt>
<wgt id='122'> +4.9910212e+02 </wgt>
<wgt id='123'> +5.0934007e+02 </wgt>
<wgt id='124'> +5.3729428e+02 </wgt>
<wgt id='125'> +5.3904647e+02 </wgt>
<wgt id='126'> +5.2155177e+02 </wgt>
<wgt id='127'> +5.1822765e+02 </wgt>
<wgt id='128'> +4.6889711e+02 </wgt>
<wgt id='129'> +5.6830651e+02 </wgt>
<wgt id='130'> +5.0576345e+02 </wgt>
<wgt id='131'> +5.3811068e+02 </wgt>
<wgt id='132'> +5.0307037e+02 </wgt>
<wgt id='133'> +5.0158865e+02 </wgt>
<wgt id='134'> +4.7792121e+02 </wgt>
<wgt id='135'> +5.1688469e+02 </wgt>
<wgt id='136'> +4.8861199e+02 </wgt>
<wgt id='137'> +4.7581641e+02 </wgt>
<wgt id='138'> +4.5854012e+02 </wgt>
<wgt id='139'> +5.1420830e+02 </wgt>
<wgt id='140'> +5.3445417e+02 </wgt>
<wgt id='141'> +5.0391372e+02 </wgt>
<wgt id='142'> +5.0665028e+02 </wgt>
<wgt id='143'> +5.0245735e+02 </wgt>
<wgt id='144'> +5.0551922e+02 </wgt>
<wgt id='145'> +5.0567398e+02 </wgt>
</rwgt>
</event>
<event>
 4      1 +5.0481800e+02 2.23396200e+02 7.54677100e-03 1.13137600e-01
       21 -1    0    0  501  502 +0.0000000000e+00 +0.0000000000e+00 +3.8850282286e+02 3.8850282286e+02 0.0000000000e+00 0.0000e+00 1.0000e+00
       21 -1    0    0  502  503 -0.0000000000e+00 -0.0000000000e+00 -1.2987933523e+02 1.2987933523e+02 0.0000000000e+00 0.0000e+00 1.0000e+00
        6  1    1    2  501    0 +1.0955864112e+01 -1.4091420846e+02 +1.5643709519e+02 2.7272405441e+02 1.7300000000e+02 0.0000e+00 1.0000e+00
       -6  1    1    2    0  503 -1.0955864112e+01 +1.4091420846e+02 +1.0218639244e+02 2.4565810368e+02 1.7300000000e+02 0.0000e+00 1.0000e+00
<mgrwt>
<rscale>  2 0.22339616E+03</rscale>
<asrwt>0</asrwt>
<pdfrwt beam="1">  1       21 0.59769664E-01 0.22339616E+03</pdfrwt>
<pdfrwt beam="2">  1       21 0.19981436E-01 0.22339616E+03</pdfrwt>
<totfact> 0.59576946E+04</totfact>
</mgrwt>
<rwgt>
<wgt id='1'> +6.4809688e+02 </wgt>
<wgt id='2'> +5.3347667e+02 </wgt>
<wgt id='3'> +5.0481800e+02 </wgt>
<wgt id='4'> +6.4809688e+02 </wgt>
<wgt id='5'> +5.0384769e+02 </wgt>
<wgt id='6'> +6.1448274e+02 </wgt>
<wgt id='7'> +4.9934650e+02 </wgt>
<wgt id='8'> +4.7239302e+02 </wgt>
<wgt id='9'> +6.1448274e+02 </wgt>
<wgt id='10'> +4.7148750e+02 </wgt>
<wgt id='11'> +5.7501388e+02 </wgt>
<wgt id='12'> +4.6723862e+02 </wgt>
<wgt id='13'> +4.4204721e+02 </wgt>
<wgt id='14'> +5.7501388e+02 </wgt>
<wgt id='15'> +4.4120120e+02 </wgt>
<wgt id='16'> +5.3243313e+02 </wgt>
<wgt id='17'> +4.4902350e+02 </wgt>
<wgt id='18'> +4.2635361e+02 </wgt>
<wgt id='19'> +5.3243313e+02 </wgt>
<wgt id='20'> +4.2557827e+02 </wgt>
<wgt id='21'> +4.2029639e+02 </wgt>
<wgt id='22'> +3.9896848e+02 </wgt>
<wgt id='23'> +5.0481800e+02 </wgt>
<wgt id='24'> +3.9824502e+02 </wgt>
<wgt id='25'> +4.7239302e+02 </wgt>
<wgt id='26'> +3.9327141e+02 </wgt>
<wgt id='27'> +3.7333935e+02 </wgt>
<wgt id='28'> +4.7239302e+02 </wgt>
<wgt id='29'> +3.7266350e+02 </wgt>
<wgt id='30'> +4.4967649e+02 </wgt>
<wgt id='31'> +3.8316723e+02 </wgt>
<wgt id='32'> +3.6484240e+02 </wgt>
<wgt id='33'> +4.4967649e+02 </wgt>
<wgt id='34'> +3.6421388e+02 </wgt>
<wgt id='35'> +4.2635361e+02 </wgt>
<wgt id='36'> +3.5865339e+02 </wgt>
<wgt id='37'> +3.4140819e+02 </wgt>
<wgt id='38'> +4.2635361e+02 </wgt>
<wgt id='39'> +3.4082183e+02 </wgt>
<wgt id='40'> +3.9896848e+02 </wgt>
<wgt id='41'> +3.3559205e+02 </wgt>
<wgt id='42'> +3.1947665e+02 </wgt>
<wgt id='43'> +3.9896848e+02 </wgt>
<wgt id='44'> +3.1892892e+02 </wgt>
<wgt id='45'> +5.0481800e+02 </wgt>
<wgt id='46'> +5.0758621e+02 </wgt>
<wgt id='47'> +5.2256368e+02 </wgt>
<wgt id='48'> +5.0728574e+02 </wgt>
<wgt id='49'> +5.0256927e+02 </wgt>
<wgt id='50'> +5.9179750e+02 </wgt>
<wgt id='51'> +4.9488005e+02 </wgt>
<wgt id='52'> +5.0269596e+02 </wgt>
<wgt id='53'> +5.0770437e+02 </wgt>
<wgt id='54'> +5.0830237e+02 </wgt>
<wgt id='55'> +4.5650430e+02 </wgt>
<wgt id='56'> +4.6772503e+02 </wgt>
<wgt id='57'> +4.9418941e+02 </wgt>
<wgt id='58'> +5.0514623e+02 </wgt>
<wgt id='59'> +5.0302770e+02 </wgt>
<wgt id='60'> +4.8900500e+02 </wgt>
<wgt id='61'> +4.8186415e+02 </wgt>
<wgt id='62'> +4.9805251e+02 </wgt>
<wgt id='63'> +5.0542044e+02 </wgt>
<wgt id='64'> +4.9812867e+02 </wgt>
<wgt id='65'> +5.8767700e+02 </wgt>
<wgt id='66'> +4.9383821e+02 </wgt>
<wgt id='67'> +5.0909424e+02 </wgt>
<wgt id='68'> +5.4395486e+02 </wgt>
<wgt id='69'> +4.9552242e+02 </wgt>
<wgt id='70'> +4.9675497e+02 </wgt>
<wgt id='71'> +5.1365521e+02 </wgt>
<wgt id='72'> +4.8872823e+02 </wgt>
<wgt id='73'> +4.9642116e+02 </wgt>
<wgt id='74'> +5.2280041e+02 </wgt>
<wgt id='75'> +5.1604936e+02 </wgt>
<wgt id='76'> +4.9164635e+02 </wgt>
<wgt id='77'> +4.8878983e+02 </wgt>
<wgt id='78'> +5.0028680e+02 </wgt>
<wgt id='79'> +4.8767748e+02 </wgt>
<wgt id='80'> +4.9872154e+02 </wgt>
<wgt id='81'> +4.9535312e+02 </wgt>
<wgt id='82'> +5.1414408e+02 </wgt>
<wgt id='83'> +5.1471149e+02 </wgt>
<wgt id='84'> +5.5193977e+02 </wgt>
<wgt id='85'> +5.2771283e+02 </wgt>
<wgt id='86'> +5.0303577e+02 </wgt>
<wgt id='87'> +5.0573888e+02 </wgt>
<wgt id='88'> +5.1250862e+02 </wgt>
<wgt id='89'> +5.1611391e+02 </wgt>
<wgt id='90'> +5.1167373e+02 </wgt>
<wgt id='91'> +5.3303591e+02 </wgt>
<wgt id='92'> +4.6342914e+02 </wgt>
<wgt id='93'> +4.9782885e+02 </wgt>
<wgt id='94'> +4.9985157e+02 </wgt>
<wgt id='95'> +4.8658050e+02 </wgt>
<wgt id='96'> +5.4494960e+02 </wgt>
<wgt id='97'> +5.0978124e+02 </wgt>
<wgt id='98'> +4.8431593e+02 </wgt>
<wgt id='99'> +4.8817536e+02 </wgt>
<wgt id='100'> +4.9460778e+02 </wgt>
<wgt id='101'> +5.3598880e+02 </wgt>
<wgt id='102'> +4.9677293e+02 </wgt>
<wgt id='103'> +5.4732860e+02 </wgt>
<wgt id='104'> +5.0522422e+02 </wgt>
<wgt id='105'> +5.2323861e+02 </wgt>
<wgt id='106'> +4.6315619e+02 </wgt>
<wgt id='107'> +4.9430069e+02 </wgt>
<wgt id='108'> +4.5076211e+02 </wgt>
<wgt id='109'> +4.7399944e+02 </wgt>
<wgt id='110'> +5.0457465e+02 </wgt>
<wgt id='111'> +4.9126717e+02 </wgt>
<wgt id='112'> +4.8036372e+02 </wgt>
<wgt id='113'> +4.6429633e+02 </wgt>
<wgt id='114'> +5.0016942e+02 </wgt>
<wgt id='115'> +4.9905294e+02 </wgt>
<wgt id='116'> +5.0848035e+02 </wgt>
<wgt id='117'> +5.0856887e+02 </wgt>
<wgt id='118'> +5.2034716e+02 </wgt>
<wgt id='119'> +4.8636581e+02 </wgt>
<wgt id='120'> +4.9907806e+02 </wgt>
<wgt id='121'> +4.9112876e+02 </wgt>
<wgt id='122'> +4.9846718e+02 </wgt>
<wgt id='123'> +5.1083431e+02 </wgt>
<wgt id='124'> +5.4297652e+02 </wgt>
<wgt id='125'> +5.4461310e+02 </wgt>
<wgt id='126'> +5.2364007e+02 </wgt>
<wgt id='127'> +5.1958420e+02 </wgt>
<wgt id='128'> +4.6667728e+02 </wgt>
<wgt id='129'> +5.6980968e+02 </wgt>
<wgt id='130'> +5.0719179e+02 </wgt>
<wgt id='131'> +5.3745626e+02 </wgt>
<wgt id='132'> +5.0586135e+02 </wgt>
<wgt id='133'> +5.0517794e+02 </wgt>
<wgt id='134'> +4.7849293e+02 </wgt>
<wgt id='135'> +5.1648612e+02 </wgt>
<wgt id='136'> +4.9129271e+02 </wgt>
<wgt id='137'> +4.7768994e+02 </wgt>
<wgt id='138'> +4.6328813e+02 </wgt>
<wgt id='139'> +5.1570176e+02 </wgt>
<wgt id='140'> +5.3250447e+02 </wgt>
<wgt id='141'> +5.0575812e+02 </wgt>
<wgt id='142'> +5.0127890e+02 </wgt>
<wgt id='143'> +5.0372673e+02 </wgt>
<wgt id='144'> +5.0231930e+02 </wgt>
<wgt id='145'> +5.0551993e+02 </wgt>
</rwgt>
</event>
<event>
 4      1 +5.0481800e+02 1.76130400e+02 7.54677100e-03 1.17160200e-01
       21 -1    0    0  501  502 +0.0000000000e+00 +0.0000000000e+00 +1.2057058896e+03 1.2057058896e+03 0.0000000000e+00 0.0000e+00 1.0000e+00
       21 -1    0    0  502  503 -0.0000000000e+00 -0.0000000000e+00 -2.7037878087e+01 2.7037878087e+01 0.0000000000e+00 0.0000e+00 1.0000e+00
        6  1    1    2  501    0 +2.5466313094e+01 -2.1080058770e+01 +7.2493581999e+02 7.4602536490e+02 1.7300000000e+02 0.0000e+00 -1.0000e+00
       -6  1    1    2    0  503 -2.5466313094e+01 +2.1080058770e+01 +4.5373219153e+02 4.8671840279e+02 1.7300000000e+02 0.0000e+00 -1.0000e+00
<mgrwt>
<rscale>  2 0.17613036E+03</rscale>
<asrwt>0</asrwt>
<pdfrwt beam="1">  1       21 0.18549317E+00 0.17613036E+03</pdfrwt>
<pdfrwt beam="2">  1       21 0.41596745E-02 0.17613036E+03</pdfrwt>
<totfact> 0.61928528E+04</totfact>
</mgrwt>
<rwgt>
<wgt id='1'> +6.6456913e+02 </wgt>
<wgt id='2'> +9.8755989e+02 </wgt>
<wgt id='3'> +5.0481801e+02 </wgt>
<wgt id='4'> +6.6456914e+02 </wgt>
<wgt id='5'> +5.0003364e+02 </wgt>
<wgt id='6'> +6.2208528e+02 </wgt>
<wgt id='7'> +9.3624666e+02 </wgt>
<wgt id='8'> +4.6412424e+02 </wgt>
<wgt id='9'> +6.2208529e+02 </wgt>
<wgt id='10'> +4.5960146e+02 </wgt>
<wgt id='11'> +5.7193851e+02 </wgt>
<wgt id='12'> +8.7908377e+02 </wgt>
<wgt id='13'> +4.2662218e+02 </wgt>
<wgt id='14'> +5.7193852e+02 </wgt>
<wgt id='15'> +4.2248223e+02 </wgt>
<wgt id='16'> +5.3929335e+02 </wgt>
<wgt id='17'> +7.7357682e+02 </wgt>
<wgt id='18'> +4.2384999e+02 </wgt>
<wgt id='19'> +5.3929336e+02 </wgt>
<wgt id='20'> +4.2017109e+02 </wgt>
<wgt id='21'> +7.3338208e+02 </wgt>
<wgt id='22'> +3.8968312e+02 </wgt>
<wgt id='23'> +5.0481801e+02 </wgt>
<wgt id='24'> +3.8619651e+02 </wgt>
<wgt id='25'> +4.6412424e+02 </wgt>
<wgt id='26'> +6.8860516e+02 </wgt>
<wgt id='27'> +3.5819603e+02 </wgt>
<wgt id='28'> +4.6412424e+02 </wgt>
<wgt id='29'> +3.5500575e+02 </wgt>
<wgt id='30'> +4.5279582e+02 </wgt>
<wgt id='31'> +6.2226318e+02 </wgt>
<wgt id='32'> +3.6115284e+02 </wgt>
<wgt id='33'> +4.5279582e+02 </wgt>
<wgt id='34'> +3.5818122e+02 </wgt>
<wgt id='35'> +4.2384998e+02 </wgt>
<wgt id='36'> +5.8993063e+02 </wgt>
<wgt id='37'> +3.3204004e+02 </wgt>
<wgt id='38'> +4.2384999e+02 </wgt>
<wgt id='39'> +3.2921907e+02 </wgt>
<wgt id='40'> +3.8968311e+02 </wgt>
<wgt id='41'> +5.5391220e+02 </wgt>
<wgt id='42'> +3.0521062e+02 </wgt>
<wgt id='43'> +3.8968312e+02 </wgt>
<wgt id='44'> +3.0263004e+02 </wgt>
<wgt id='45'> +5.0481800e+02 </wgt>
<wgt id='46'> +5.1888804e+02 </wgt>
<wgt id='47'> +5.1750059e+02 </wgt>
<wgt id='48'> +5.0354054e+02 </wgt>
<wgt id='49'> +4.7098004e+02 </wgt>
<wgt id='50'> +5.8279340e+02 </wgt>
<wgt id='51'> +4.7789113e+02 </wgt>
<wgt id='52'> +4.7860479e+02 </wgt>
<wgt id='53'> +5.0217682e+02 </wgt>
<wgt id='54'> +5.3359389e+02 </wgt>
<wgt id='55'> +5.5938200e+02 </wgt>
<wgt id='56'> +4.8288328e+02 </wgt>
<wgt id='57'> +5.3542574e+02 </wgt>
<wgt id='58'> +4.6471064e+02 </wgt>
<wgt id='59'> +5.4911725e+02 </wgt>
<wgt id='60'> +5.1174405e+02 </wgt>
<wgt id='61'> +4.4851670e+02 </wgt>
<wgt id='62'> +4.7040387e+02 </wgt>
<wgt id='63'> +5.2961992e+02 </wgt>
<wgt id='64'> +5.0632160e+02 </wgt>
<wgt id='65'> +4.6666108e+02 </wgt>
<wgt id='66'> +5.0857967e+02 </wgt>
<wgt id='67'> +5.0706768e+02 </wgt>
<wgt id='68'> +5.9989971e+02 </wgt>
<wgt id='69'> +5.3581714e+02 </wgt>
<wgt id='70'> +5.3574663e+02 </wgt>
<wgt id='71'> +4.7490160e+02 </wgt>
<wgt id='72'> +4.7110667e+02 </wgt>
<wgt id='73'> +4.6307203e+02 </wgt>
<wgt id='74'> +5.7051129e+02 </wgt>
<wgt id='75'> +5.4120237e+02 </wgt>
<wgt id='76'> +5.1800552e+02 </wgt>
<wgt id='77'> +4.8330579e+02 </wgt>
<wgt id='78'> +4.4142711e+02 </wgt>
<wgt id='79'> +5.3701695e+02 </wgt>
<wgt id='80'> +4.5443139e+02 </wgt>
<wgt id='81'> +5.1890075e+02 </wgt>
<wgt id='82'> +4.9168617e+02 </wgt>
<wgt id='83'> +4.9537997e+02 </wgt>
<wgt id='84'> +4.9406910e+02 </wgt>
<wgt id='85'> +4.6334943e+02 </wgt>
<wgt id='86'> +5.2520443e+02 </wgt>
<wgt id='87'> +5.0068958e+02 </wgt>
<wgt id='88'> +4.8955033e+02 </wgt>
<wgt id='89'> +4.4470606e+02 </wgt>
<wgt id='90'> +4.7964274e+02 </wgt>
<wgt id='91'> +4.4984346e+02 </wgt>
<wgt id='92'> +4.7517728e+02 </wgt>
<wgt id='93'> +5.1038195e+02 </wgt>
<wgt id='94'> +4.6756647e+02 </wgt>
<wgt id='95'> +5.3039242e+02 </wgt>
<wgt id='96'> +5.2469221e+02 </wgt>
<wgt id='97'> +4.6301645e+02 </wgt>
<wgt id='98'> +5.3534557e+02 </wgt>
<wgt id='99'> +4.3487094e+02 </wgt>
<wgt id='100'> +3.9974277e+02 </wgt>
<wgt id='101'> +5.8300964e+02 </wgt>
<wgt id='102'> +5.6201719e+02 </wgt>
<wgt id='103'> +4.8981971e+02 </wgt>
<wgt id='104'> +5.3292442e+02 </wgt>
<wgt id='105'> +5.1737371e+02 </wgt>
<wgt id='106'> +4.9022867e+02 </wgt>
<wgt id='107'> +4.8718294e+02 </wgt>
<wgt id='108'> +4.7206108e+02 </wgt>
<wgt id='109'> +5.0011569e+02 </wgt>
<wgt id='110'> +4.7212212e+02 </wgt>
<wgt id='111'> +4.9188590e+02 </wgt>
<wgt id='112'> +5.2153863e+02 </wgt>
<wgt id='113'> +5.2398380e+02 </wgt>
<wgt id='114'> +5.2133919e+02 </wgt>
<wgt id='115'> +4.6121529e+02 </wgt>
<wgt id='116'> +5.4845703e+02 </wgt>
<wgt id='117'> +4.9248242e+02 </wgt>
<wgt id='118'> +5.2165843e+02 </wgt>
<wgt id='119'> +5.4741638e+02 </wgt>
<wgt id='120'> +5.0347588e+02 </wgt>
<wgt id='121'> +5.0168187e+02 </wgt>
<wgt id='122'> +4.9599773e+02 </wgt>
<wgt id='123'> +4.8420848e+02 </wgt>
<wgt id='124'> +5.6604988e+02 </wgt>
<wgt id='125'> +6.1957120e+02 </wgt>
<wgt id='126'> +4.9675014e+02 </wgt>
<wgt id='127'> +4.8776918e+02 </wgt>
<wgt id='128'> +4.8178851e+02 </wgt>
<wgt id='129'> +5.1864856e+02 </wgt>
<wgt id='130'> +4.8462543e+02 </wgt>
<wgt id='131'> +4.7134169e+02 </wgt>
<wgt id='132'> +5.5438424e+02 </wgt>
<wgt id='133'> +5.4718605e+02 </wgt>
<wgt id='134'> +5.2825962e+02 </wgt>
<wgt id='135'> +4.8645235e+02 </wgt>
<wgt id='136'> +5.9059634e+02 </wgt>
<wgt id='137'> +5.2072545e+02 </wgt>
<wgt id='138'> +5.0976088e+02 </wgt>
<wgt id='139'> +5.2109977e+02 </wgt>
<wgt id='140'> +4.9343419e+02 </wgt>
<wgt id='141'> +5.6108149e+02 </wgt>
<wgt id='142'> +3.7436482e+02 </wgt>
<wgt id='143'> +5.2004341e+02 </wgt>
<wgt id='144'> +4.6547297e+02 </wgt>
<wgt id='145'> +4.6843626e+02 </wgt>
</rwgt>
</event>
<event>
 4      1 +5.0481800e+02 1.88221600e+02 7.54677100e-03 1.16007500e-01
       21 -1    0    0  503  502 +0.0000000000e+00 +0.0000000000e+00 +4.4423387458e+02 4.4423387458e+02 0.0000000000e+00 0.0000e+00 -1.0000e+00
       21 -1    0    0  501  503 -0.0000000000e+00 -0.0000000000e+00 -7.9751930994e+01 7.9751930994e+01 0.0000000000e+00 0.0000e+00 -1.0000e+00
        6  1    1    2  501    0 +3.5095004423e+01 -6.5319930741e+01 +1.8373792778e+02 2.6303417799e+02 1.7300000000e+02 0.0000e+00 -1.0000e+00
       -6  1    1    2    0  502 -3.5095004423e+01 +6.5319930741e+01 +1.8074401580e+02 2.6095162758e+02 1.7300000000e+02 0.0000e+00 -1.0000e+00
<mgrwt>
<rscale>  2 0.18822155E+03</rscale>
<asrwt>0</asrwt>
<pdfrwt beam="1">  1       21 0.68343671E-01 0.18822155E+03</pdfrwt>
<pdfrwt beam="2">  1       21 0.12269528E-01 0.18822155E+03</pdfrwt>
<totfact> 0.11032920E+05</totfact>
</mgrwt>
<rwgt>
<wgt id='1'> +6.4394399e+02 </wgt>
<wgt id='2'> +6.3289473e+02 </wgt>
<wgt id='3'> +5.0481800e+02 </wgt>
<wgt id='4'> +6.4394399e+02 </wgt>
<wgt id='5'> +5.0481519e+02 </wgt>
<wgt id='6'> +6.2015430e+02 </wgt>
<wgt id='7'> +6.0867215e+02 </wgt>
<wgt id='8'> +4.7688618e+02 </wgt>
<wgt id='9'> +6.2015430e+02 </wgt>
<wgt id='10'> +4.7688345e+02 </wgt>
<wgt id='11'> +5.8584088e+02 </wgt>
<wgt id='12'> +5.7475601e+02 </wgt>
<wgt id='13'> +4.4982670e+02 </wgt>
<wgt id='14'> +5.8584087e+02 </wgt>
<wgt id='15'> +4.4982412e+02 </wgt>
<wgt id='16'> +5.2418328e+02 </wgt>
<wgt id='17'> +5.1639760e+02 </wgt>
<wgt id='18'> +4.2472607e+02 </wgt>
<wgt id='19'> +5.2418328e+02 </wgt>
<wgt id='20'> +4.2472391e+02 </wgt>
<wgt id='21'> +4.9663368e+02 </wgt>
<wgt id='22'> +4.0122578e+02 </wgt>
<wgt id='23'> +5.0481800e+02 </wgt>
<wgt id='24'> +4.0122367e+02 </wgt>
<wgt id='25'> +4.7688618e+02 </wgt>
<wgt id='26'> +4.6896049e+02 </wgt>
<wgt id='27'> +3.7845942e+02 </wgt>
<wgt id='28'> +4.7688618e+02 </wgt>
<wgt id='29'> +3.7845742e+02 </wgt>
<wgt id='30'> +4.4101895e+02 </wgt>
<wgt id='31'> +4.3504017e+02 </wgt>
<wgt id='32'> +3.6233856e+02 </wgt>
<wgt id='33'> +4.4101895e+02 </wgt>
<wgt id='34'> +3.6233683e+02 </wgt>
<wgt id='35'> +4.2472607e+02 </wgt>
<wgt id='36'> +4.1839002e+02 </wgt>
<wgt id='37'> +3.4229020e+02 </wgt>
<wgt id='38'> +4.2472607e+02 </wgt>
<wgt id='39'> +3.4228850e+02 </wgt>
<wgt id='40'> +4.0122578e+02 </wgt>
<wgt id='41'> +3.9507669e+02 </wgt>
<wgt id='42'> +3.2286797e+02 </wgt>
<wgt id='43'> +4.0122578e+02 </wgt>
<wgt id='44'> +3.2286636e+02 </wgt>
<wgt id='45'> +5.0481800e+02 </wgt>
<wgt id='46'> +5.0715991e+02 </wgt>
<wgt id='47'> +5.1938530e+02 </wgt>
<wgt id='48'> +5.0601121e+02 </wgt>
<wgt id='49'> +5.0206513e+02 </wgt>
<wgt id='50'> +5.8322683e+02 </wgt>
<wgt id='51'> +4.9486406e+02 </wgt>
<wgt id='52'> +5.0351690e+02 </wgt>
<wgt id='53'> +5.0617854e+02 </wgt>
<wgt id='54'> +5.0870989e+02 </wgt>
<wgt id='55'> +4.6354985e+02 </wgt>
<wgt id='56'> +4.6960840e+02 </wgt>
<wgt id='57'> +4.9767652e+02 </wgt>
<wgt id='58'> +5.0617389e+02 </wgt>
<wgt id='59'> +5.0641500e+02 </wgt>
<wgt id='60'> +4.9282233e+02 </wgt>
<wgt id='61'> +4.7654968e+02 </wgt>
<wgt id='62'> +4.9744732e+02 </wgt>
<wgt id='63'> +5.0559376e+02 </wgt>
<wgt id='64'> +4.9930687e+02 </wgt>
<wgt id='65'> +5.7687343e+02 </wgt>
<wgt id='66'> +4.9389261e+02 </wgt>
<wgt id='67'> +5.0874983e+02 </wgt>
<wgt id='68'> +5.4317179e+02 </wgt>
<wgt id='69'> +4.9329907e+02 </wgt>
<wgt id='70'> +4.9780932e+02 </wgt>
<wgt id='71'> +5.1314796e+02 </wgt>
<wgt id='72'> +4.9414866e+02 </wgt>
<wgt id='73'> +4.9713128e+02 </wgt>
<wgt id='74'> +5.2208005e+02 </wgt>
<wgt id='75'> +5.1449315e+02 </wgt>
<wgt id='76'> +4.9434790e+02 </wgt>
<wgt id='77'> +4.9008166e+02 </wgt>
<wgt id='78'> +4.9889590e+02 </wgt>
<wgt id='79'> +4.8970368e+02 </wgt>
<wgt id='80'> +4.9836820e+02 </wgt>
<wgt id='81'> +4.9663287e+02 </wgt>
<wgt id='82'> +5.1130921e+02 </wgt>
<wgt id='83'> +5.1137436e+02 </wgt>
<wgt id='84'> +5.4591813e+02 </wgt>
<wgt id='85'> +5.2394439e+02 </wgt>
<wgt id='86'> +5.0205840e+02 </wgt>
<wgt id='87'> +5.0577263e+02 </wgt>
<wgt id='88'> +5.0919735e+02 </wgt>
<wgt id='89'> +5.1486346e+02 </wgt>
<wgt id='90'> +5.1248074e+02 </wgt>
<wgt id='91'> +5.2953542e+02 </wgt>
<wgt id='92'> +4.6955676e+02 </wgt>
<wgt id='93'> +4.9792665e+02 </wgt>
<wgt id='94'> +5.0032382e+02 </wgt>
<wgt id='95'> +4.9099741e+02 </wgt>
<wgt id='96'> +5.3888824e+02 </wgt>
<wgt id='97'> +5.0875414e+02 </wgt>
<wgt id='98'> +4.8602661e+02 </wgt>
<wgt id='99'> +4.8852684e+02 </wgt>
<wgt id='100'> +4.9483447e+02 </wgt>
<wgt id='101'> +5.3538193e+02 </wgt>
<wgt id='102'> +4.9781602e+02 </wgt>
<wgt id='103'> +5.4389102e+02 </wgt>
<wgt id='104'> +5.0374440e+02 </wgt>
<wgt id='105'> +5.2431013e+02 </wgt>
<wgt id='106'> +4.6796647e+02 </wgt>
<wgt id='107'> +4.9576310e+02 </wgt>
<wgt id='108'> +4.5452551e+02 </wgt>
<wgt id='109'> +4.7760112e+02 </wgt>
<wgt id='110'> +5.0542431e+02 </wgt>
<wgt id='111'> +4.9279997e+02 </wgt>
<wgt id='112'> +4.8184787e+02 </wgt>
<wgt id='113'> +4.6805615e+02 </wgt>
<wgt id='114'> +5.0174881e+02 </wgt>
<wgt id='115'> +4.9594089e+02 </wgt>
<wgt id='116'> +5.0739122e+02 </wgt>
<wgt id='117'> +5.0672428e+02 </wgt>
<wgt id='118'> +5.1884215e+02 </wgt>
<wgt id='119'> +4.8950738e+02 </wgt>
<wgt id='120'> +4.9751482e+02 </wgt>
<wgt id='121'> +4.9439418e+02 </wgt>
<wgt id='122'> +4.9952201e+02 </wgt>
<wgt id='123'> +5.0838224e+02 </wgt>
<wgt id='124'> +5.4127640e+02 </wgt>
<wgt id='125'> +5.4370139e+02 </wgt>
<wgt id='126'> +5.2056142e+02 </wgt>
<wgt id='127'> +5.1785160e+02 </wgt>
<wgt id='128'> +4.6652224e+02 </wgt>
<wgt id='129'> +5.6621938e+02 </wgt>
<wgt id='130'> +5.0303956e+02 </wgt>
<wgt id='131'> +5.3439011e+02 </wgt>
<wgt id='132'> +5.1043601e+02 </wgt>
<wgt id='133'> +5.0562920e+02 </wgt>
<wgt id='134'> +4.8212272e+02 </wgt>
<wgt id='135'> +5.1548902e+02 </wgt>
<wgt id='136'> +4.9718211e+02 </wgt>
<wgt id='137'> +4.7789744e+02 </wgt>
<wgt id='138'> +4.6223171e+02 </wgt>
<wgt id='139'> +5.1561475e+02 </wgt>
<wgt id='140'> +5.3009331e+02 </wgt>
<wgt id='141'> +5.0556307e+02 </wgt>
<wgt id='142'> +4.9881960e+02 </wgt>
<wgt id='143'> +5.0624969e+02 </wgt>
<wgt id='144'> +5.0362809e+02 </wgt>
<wgt id='145'> +5.0482379e+02 </wgt>
</rwgt>
</event>
<event>
 4      1 +5.0481800e+02 1.86114600e+02 7.54677100e-03 1.16201300e-01
        1 -1    0    0  502    0 +0.0000000000e+00 +0.0000000000e+00 +2.4870688931e+02 2.4870688931e+02 0.0000000000e+00 0.0000e+00 1.0000e+00
       -1 -1    0    0    0  501 -0.0000000000e+00 -0.0000000000e+00 -2.3993439274e+02 2.3993439274e+02 0.0000000000e+00 0.0000e+00 -1.0000e+00
        6  1    1    2  502    0 +3.0608585367e+01 -6.1422913897e+01 -1.5386275801e+02 2.4147962265e+02 1.7300000000e+02 0.0000e+00 -1.0000e+00
       -6  1    1    2    0  501 -3.0608585367e+01 +6.1422913897e+01 +1.6263525458e+02 2.4716165941e+02 1.7300000000e+02 0.0000e+00 1.0000e+00
<mgrwt>
<rscale>  2 0.18611464E+03</rscale>
<asrwt>0</asrwt>
<pdfrwt beam="1">  1        1 0.38262598E-01 0.18611464E+03</pdfrwt>
<pdfrwt beam="2">  1       -1 0.36912984E-01 0.18611464E+03</pdfrwt>
<totfact> 0.79184629E+02</totfact>
</mgrwt>
<rwgt>
<wgt id='1'> +6.1523515e+02 </wgt>
<wgt id='2'> +6.0727771e+02 </wgt>
<wgt id='3'> +5.0481800e+02 </wgt>
<wgt id='4'> +6.1523514e+02 </wgt>
<wgt id='5'> +4.7153092e+02 </wgt>
<wgt id='6'> +6.2047237e+02 </wgt>
<wgt id='7'> +6.1219318e+02 </wgt>
<wgt id='8'> +5.0612353e+02 </wgt>
<wgt id='9'> +6.2047237e+02 </wgt>
<wgt id='10'> +4.7182371e+02 </wgt>
<wgt id='11'> +6.2207701e+02 </wgt>
<wgt id='12'> +6.1357286e+02 </wgt>
<wgt id='13'> +5.0511025e+02 </wgt>
<wgt id='14'> +6.2207700e+02 </wgt>
<wgt id='15'> +4.7018865e+02 </wgt>
<wgt id='16'> +5.0055698e+02 </wgt>
<wgt id='17'> +4.9510647e+02 </wgt>
<wgt id='18'> +4.2458562e+02 </wgt>
<wgt id='19'> +5.0055698e+02 </wgt>
<wgt id='20'> +3.9895096e+02 </wgt>
<wgt id='21'> +4.9911400e+02 </wgt>
<wgt id='22'> +4.2568367e+02 </wgt>
<wgt id='23'> +5.0481800e+02 </wgt>
<wgt id='24'> +3.9919868e+02 </wgt>
<wgt id='25'> +5.0612354e+02 </wgt>
<wgt id='26'> +5.0023883e+02 </wgt>
<wgt id='27'> +4.2483143e+02 </wgt>
<wgt id='28'> +5.0612353e+02 </wgt>
<wgt id='29'> +3.9781529e+02 </wgt>
<wgt id='30'> +4.2100182e+02 </wgt>
<wgt id='31'> +4.1693741e+02 </wgt>
<wgt id='32'> +3.6214464e+02 </wgt>
<wgt id='33'> +4.2100182e+02 </wgt>
<wgt id='34'> +3.4192303e+02 </wgt>
<wgt id='35'> +4.2458563e+02 </wgt>
<wgt id='36'> +4.2031222e+02 </wgt>
<wgt id='37'> +3.6308120e+02 </wgt>
<wgt id='38'> +4.2458562e+02 </wgt>
<wgt id='39'> +3.4213534e+02 </wgt>
<wgt id='40'> +4.2568367e+02 </wgt>
<wgt id='41'> +4.2125946e+02 </wgt>
<wgt id='42'> +3.6235429e+02 </wgt>
<wgt id='43'> +4.2568367e+02 </wgt>
<wgt id='44'> +3.4094970e+02 </wgt>
<wgt id='45'> +5.0481800e+02 </wgt>
<wgt id='46'> +5.2108533e+02 </wgt>
<wgt id='47'> +5.0606706e+02 </wgt>
<wgt id='48'> +4.8188788e+02 </wgt>
<wgt id='49'> +4.8334631e+02 </wgt>
<wgt id='50'> +4.5071573e+02 </wgt>
<wgt id='51'> +4.8535575e+02 </wgt>
<wgt id='52'> +5.3926629e+02 </wgt>
<wgt id='53'> +5.1975985e+02 </wgt>
<wgt id='54'> +4.9681541e+02 </wgt>
<wgt id='55'> +4.9827670e+02 </wgt>
<wgt id='56'> +5.5644995e+02 </wgt>
<wgt id='57'> +4.5664524e+02 </wgt>
<wgt id='58'> +5.3432067e+02 </wgt>
<wgt id='59'> +4.4332664e+02 </wgt>
<wgt id='60'> +5.0513900e+02 </wgt>
<wgt id='61'> +5.1760206e+02 </wgt>
<wgt id='62'> +5.3872859e+02 </wgt>
<wgt id='63'> +5.4154699e+02 </wgt>
<wgt id='64'> +5.0416779e+02 </wgt>
<wgt id='65'> +4.8008105e+02 </wgt>
<wgt id='66'> +4.8682967e+02 </wgt>
<wgt id='67'> +5.3957074e+02 </wgt>
<wgt id='68'> +4.4276919e+02 </wgt>
<wgt id='69'> +4.8437327e+02 </wgt>
<wgt id='70'> +5.2598057e+02 </wgt>
<wgt id='71'> +5.0127453e+02 </wgt>
<wgt id='72'> +4.7835741e+02 </wgt>
<wgt id='73'> +5.2495895e+02 </wgt>
<wgt id='74'> +4.6680616e+02 </wgt>
<wgt id='75'> +5.0571629e+02 </wgt>
<wgt id='76'> +5.2408264e+02 </wgt>
<wgt id='77'> +5.2956547e+02 </wgt>
<wgt id='78'> +5.0158417e+02 </wgt>
<wgt id='79'> +5.3169332e+02 </wgt>
<wgt id='80'> +5.4607724e+02 </wgt>
<wgt id='81'> +5.2648897e+02 </wgt>
<wgt id='82'> +4.7809235e+02 </wgt>
<wgt id='83'> +4.6099801e+02 </wgt>
<wgt id='84'> +5.0075610e+02 </wgt>
<wgt id='85'> +5.0257357e+02 </wgt>
<wgt id='86'> +5.3828138e+02 </wgt>
<wgt id='87'> +5.2429070e+02 </wgt>
<wgt id='88'> +4.9460358e+02 </wgt>
<wgt id='89'> +5.5445403e+02 </wgt>
<wgt id='90'> +5.6848041e+02 </wgt>
<wgt id='91'> +4.6600876e+02 </wgt>
<wgt id='92'> +5.1048564e+02 </wgt>
<wgt id='93'> +5.3554221e+02 </wgt>
<wgt id='94'> +5.4905035e+02 </wgt>
<wgt id='95'> +4.9588374e+02 </wgt>
<wgt id='96'> +4.8719050e+02 </wgt>
<wgt id='97'> +5.2303926e+02 </wgt>
<wgt id='98'> +5.1711350e+02 </wgt>
<wgt id='99'> +5.6734279e+02 </wgt>
<wgt id='100'> +4.8571485e+02 </wgt>
<wgt id='101'> +4.4768544e+02 </wgt>
<wgt id='102'> +4.9982997e+02 </wgt>
<wgt id='103'> +4.8046846e+02 </wgt>
<wgt id='104'> +4.6329772e+02 </wgt>
<wgt id='105'> +4.9367911e+02 </wgt>
<wgt id='106'> +5.2324412e+02 </wgt>
<wgt id='107'> +4.8159160e+02 </wgt>
<wgt id='108'> +5.4830703e+02 </wgt>
<wgt id='109'> +4.8888560e+02 </wgt>
<wgt id='110'> +5.4696810e+02 </wgt>
<wgt id='111'> +5.1099503e+02 </wgt>
<wgt id='112'> +4.9595266e+02 </wgt>
<wgt id='113'> +5.1725990e+02 </wgt>
<wgt id='114'> +4.8213902e+02 </wgt>
<wgt id='115'> +5.0135419e+02 </wgt>
<wgt id='116'> +4.6495038e+02 </wgt>
<wgt id='117'> +4.8642608e+02 </wgt>
<wgt id='118'> +4.8411634e+02 </wgt>
<wgt id='119'> +5.1754020e+02 </wgt>
<wgt id='120'> +5.0110921e+02 </wgt>
<wgt id='121'> +4.7705474e+02 </wgt>
<wgt id='122'> +5.0147248e+02 </wgt>
<wgt id='123'> +5.3094697e+02 </wgt>
<wgt id='124'> +4.6467066e+02 </wgt>
<wgt id='125'> +4.3898301e+02 </wgt>
<wgt id='126'> +5.3550071e+02 </wgt>
<wgt id='127'> +5.2133487e+02 </wgt>
<wgt id='128'> +5.1933965e+02 </wgt>
<wgt id='129'> +4.5111335e+02 </wgt>
<wgt id='130'> +4.7874071e+02 </wgt>
<wgt id='131'> +5.1809385e+02 </wgt>
<wgt id='132'> +4.8467870e+02 </wgt>
<wgt id='133'> +5.5903728e+02 </wgt>
<wgt id='134'> +4.8311882e+02 </wgt>
<wgt id='135'> +4.5264632e+02 </wgt>
<wgt id='136'> +5.2001839e+02 </wgt>
<wgt id='137'> +5.1020103e+02 </wgt>
<wgt id='138'> +5.1572025e+02 </wgt>
<wgt id='139'> +5.4089832e+02 </wgt>
<wgt id='140'> +4.8259720e+02 </wgt>
<wgt id='141'> +5.0272229e+02 </wgt>
<wgt id='142'> +5.6116033e+02 </wgt>
<wgt id='143'> +5.1345441e+02 </wgt>
<wgt id='144'> +5.1081774e+02 </wgt>
<wgt id='145'> +5.2251407e+02 </wgt>
</rwgt>
</event>
<event>
 4      1 +5.0481800e+02 1.77446100e+02 7.54677100e-03 1.17029800e-01
       -1 -1    0    0    0  501 -0.0000000000e+00 +0.0000000000e+00 +2.4882316753e+01 2.4882316753e+01 0.0000000000e+00 0.0000e+00 1.0000e+00
        1 -1    0    0  502    0 +0.0000000000e+00 -0.0000000000e+00 -1.3155525831e+03 1.3155525831e+03 0.0000000000e+00 0.0000e+00 -1.0000e+00
        6  1    1    2  502    0 +2.2278064186e+01 -3.2585441268e+01 -5.1452923720e+02 5.4426781924e+02 1.7300000000e+02 0.0000e+00 1.0000e+00
       -6  1    1    2    0  501 -2.2278064186e+01 +3.2585441268e+01 -7.7614102915e+02 7.9616708062e+02 1.7300000000e+02 0.0000e+00 -1.0000e+00
<mgrwt>
<rscale>  2 0.17744611E+03</rscale>
<asrwt>0</asrwt>
<pdfrwt beam="2">  1        1 0.20239266E+00 0.17744611E+03</pdfrwt>
<pdfrwt beam="1">  1       -1 0.38280495E-02 0.17744611E+03</pdfrwt>
<totfact> 0.24917969E+03</totfact>
</mgrwt>
<rwgt>
<wgt id='1'> +6.1483053e+02 </wgt>
<wgt id='2'> +7.8058196e+02 </wgt>
<wgt id='3'> +5.0481800e+02 </wgt>
<wgt id='4'> +6.1483053e+02 </wgt>
<wgt id='5'> +5.0226565e+02 </wgt>
<wgt id='6'> +6.2186564e+02 </wgt>
<wgt id='7'> +7.9761259e+02 </wgt>
<wgt id='8'> +5.0704615e+02 </wgt>
<wgt id='9'> +6.2186564e+02 </wgt>
<wgt id='10'> +5.0439309e+02 </wgt>
<wgt id='11'> +6.2461041e+02 </wgt>
<wgt id='12'> +8.0744938e+02 </wgt>
<wgt id='13'> +5.0647526e+02 </wgt>
<wgt id='14'> +6.2461041e+02 </wgt>
<wgt id='15'> +5.0375794e+02 </wgt>
<wgt id='16'> +4.9910704e+02 </wgt>
<wgt id='17'> +6.1582225e+02 </wgt>
<wgt id='18'> +4.2395429e+02 </wgt>
<wgt id='19'> +4.9910704e+02 </wgt>
<wgt id='20'> +4.2207396e+02 </wgt>
<wgt id='21'> +6.2925818e+02 </wgt>
<wgt id='22'> +4.2582553e+02 </wgt>
<wgt id='23'> +5.0481800e+02 </wgt>
<wgt id='24'> +4.2386174e+02 </wgt>
<wgt id='25'> +5.0704615e+02 </wgt>
<wgt id='26'> +6.3701869e+02 </wgt>
<wgt id='27'> +4.2534609e+02 </wgt>
<wgt id='28'> +5.0704615e+02 </wgt>
<wgt id='29'> +4.2332799e+02 </wgt>
<wgt id='30'> +4.1915814e+02 </wgt>
<wgt id='31'> +4.9822703e+02 </wgt>
<wgt id='32'> +3.6129129e+02 </wgt>
<wgt id='33'> +4.1915814e+02 </wgt>
<wgt id='34'> +3.5981686e+02 </wgt>
<wgt id='35'> +4.2395429e+02 </wgt>
<wgt id='36'> +5.0909728e+02 </wgt>
<wgt id='37'> +3.6288594e+02 </wgt>
<wgt id='38'> +4.2395429e+02 </wgt>
<wgt id='39'> +3.6134093e+02 </wgt>
<wgt id='40'> +4.2582553e+02 </wgt>
<wgt id='41'> +5.1537587e+02 </wgt>
<wgt id='42'> +3.6247737e+02 </wgt>
<wgt id='43'> +4.2582553e+02 </wgt>
<wgt id='44'> +3.6088592e+02 </wgt>
<wgt id='45'> +5.0481800e+02 </wgt>
<wgt id='46'> +4.9468430e+02 </wgt>
<wgt id='47'> +4.8189850e+02 </wgt>
<wgt id='48'> +5.3489805e+02 </wgt>
<wgt id='49'> +4.9011884e+02 </wgt>
<wgt id='50'> +4.3132393e+02 </wgt>
<wgt id='51'> +5.5836178e+02 </wgt>
<wgt id='52'> +4.8262676e+02 </wgt>
<wgt id='53'> +4.7080495e+02 </wgt>
<wgt id='54'> +4.9047235e+02 </wgt>
<wgt id='55'> +5.2141690e+02 </wgt>
<wgt id='56'> +5.9144522e+02 </wgt>
<wgt id='57'> +4.9181584e+02 </wgt>
<wgt id='58'> +4.6248926e+02 </wgt>
<wgt id='59'> +4.9516774e+02 </wgt>
<wgt id='60'> +4.9028796e+02 </wgt>
<wgt id='61'> +5.4618243e+02 </wgt>
<wgt id='62'> +5.4059409e+02 </wgt>
<wgt id='63'> +4.9656854e+02 </wgt>
<wgt id='64'> +4.9347945e+02 </wgt>
<wgt id='65'> +5.4240219e+02 </wgt>
<wgt id='66'> +5.8515268e+02 </wgt>
<wgt id='67'> +5.3245651e+02 </wgt>
<wgt id='68'> +4.0808024e+02 </wgt>
<wgt id='69'> +4.8433743e+02 </wgt>
<wgt id='70'> +4.4552574e+02 </wgt>
<wgt id='71'> +5.9371123e+02 </wgt>
<wgt id='72'> +5.1975111e+02 </wgt>
<wgt id='73'> +5.0465556e+02 </wgt>
<wgt id='74'> +4.1010802e+02 </wgt>
<wgt id='75'> +4.6072371e+02 </wgt>
<wgt id='76'> +5.0853716e+02 </wgt>
<wgt id='77'> +5.4468943e+02 </wgt>
<wgt id='78'> +5.3676751e+02 </wgt>
<wgt id='79'> +4.9845399e+02 </wgt>
<wgt id='80'> +5.8526645e+02 </wgt>
<wgt id='81'> +4.8106649e+02 </wgt>
<wgt id='82'> +5.1027445e+02 </wgt>
<wgt id='83'> +5.0233470e+02 </wgt>
<wgt id='84'> +5.1262426e+02 </wgt>
<wgt id='85'> +5.0908508e+02 </wgt>
<wgt id='86'> +4.8064733e+02 </wgt>
<wgt id='87'> +4.8009058e+02 </wgt>
<wgt id='88'> +5.1019364e+02 </wgt>
<wgt id='89'> +5.0618851e+02 </wgt>
<wgt id='90'> +5.3698210e+02 </wgt>
<wgt id='91'> +5.8207020e+02 </wgt>
<wgt id='92'> +5.5635193e+02 </wgt>
<wgt id='93'> +4.9247706e+02 </wgt>
<wgt id='94'> +5.3865602e+02 </wgt>
<wgt id='95'> +5.0316321e+02 </wgt>
<wgt id='96'> +4.7861615e+02 </wgt>
<wgt id='97'> +5.4102443e+02 </wgt>
<wgt id='98'> +5.1552138e+02 </wgt>
<wgt id='99'> +5.2444246e+02 </wgt>
<wgt id='100'> +6.0398195e+02 </wgt>
<wgt id='101'> +4.3472946e+02 </wgt>
<wgt id='102'> +4.4649455e+02 </wgt>
<wgt id='103'> +4.3929621e+02 </wgt>
<wgt id='104'> +5.7538126e+02 </wgt>
<wgt id='105'> +4.8230428e+02 </wgt>
<wgt id='106'> +5.3699870e+02 </wgt>
<wgt id='107'> +5.0527473e+02 </wgt>
<wgt id='108'> +5.9527832e+02 </wgt>
<wgt id='109'> +5.4858852e+02 </wgt>
<wgt id='110'> +5.0840987e+02 </wgt>
<wgt id='111'> +5.2364632e+02 </wgt>
<wgt id='112'> +5.0298734e+02 </wgt>
<wgt id='113'> +4.7144906e+02 </wgt>
<wgt id='114'> +5.4369026e+02 </wgt>
<wgt id='115'> +5.8070754e+02 </wgt>
<wgt id='116'> +4.9271180e+02 </wgt>
<wgt id='117'> +5.1397274e+02 </wgt>
<wgt id='118'> +4.3373871e+02 </wgt>
<wgt id='119'> +4.5438139e+02 </wgt>
<wgt id='120'> +4.9975342e+02 </wgt>
<wgt id='121'> +4.9802314e+02 </wgt>
<wgt id='122'> +5.2189447e+02 </wgt>
<wgt id='123'> +5.3914363e+02 </wgt>
<wgt id='124'> +4.3238187e+02 </wgt>
<wgt id='125'> +3.7379432e+02 </wgt>
<wgt id='126'> +4.9872357e+02 </wgt>
<wgt id='127'> +4.8487391e+02 </wgt>
<wgt id='128'> +6.0012505e+02 </wgt>
<wgt id='129'> +4.4198076e+02 </wgt>
<wgt id='130'> +5.1378796e+02 </wgt>
<wgt id='131'> +4.9410382e+02 </wgt>
<wgt id='132'> +4.5187302e+02 </wgt>
<wgt id='133'> +4.5060141e+02 </wgt>
<wgt id='134'> +5.1722946e+02 </wgt>
<wgt id='135'> +4.9839114e+02 </wgt>
<wgt id='136'> +4.1475261e+02 </wgt>
<wgt id='137'> +5.1832165e+02 </wgt>
<wgt id='138'> +5.4673482e+02 </wgt>
<wgt id='139'> +4.5154079e+02 </wgt>
<wgt id='140'> +4.6473152e+02 </wgt>
<wgt id='141'> +4.4552614e+02 </wgt>
<wgt id='142'> +6.3589960e+02 </wgt>
<wgt id='143'> +4.8976707e+02 </wgt>
<wgt id='144'> +5.3076969e+02 </wgt>
<wgt id='145'> +5.2136533e+02 </wgt>
</rwgt>
</event>
<event>
 4      1 +5.0481800e+02 2.18497500e+02 7.54677100e-03 1.13500800e-01
       21 -1    0    0  501  502 +0.0000000000e+00 +0.0000000000e+00 +1.0708103186e+02 1.0708103186e+02 0.0000000000e+00 0.0000e+00 1.0000e+00
       21 -1    0    0  502  503 -0.0000000000e+00 -0.0000000000e+00 -5.4234519560e+02 5.4234519560e+02 0.0000000000e+00 0.0000e+00 1.0000e+00
        6  1    1    2  501    0 +1.0078415042e+02 +8.7491267332e+01 -8.0659411169e+01 2.3291008446e+02 1.7300000000e+02 0.0000e+00 1.0000e+00
       -6  1    1    2    0  503 -1.0078415042e+02 -8.7491267332e+01 -3.5460475257e+02 4.1651614300e+02 1.7300000000e+02 0.0000e+00 1.0000e+00
<mgrwt>
<rscale>  2 0.21849752E+03</rscale>
<asrwt>0</asrwt>
<pdfrwt beam="1">  1       21 0.16474005E-01 0.21849752E+03</pdfrwt>
<pdfrwt beam="2">  1       21 0.83437723E-01 0.21849752E+03</pdfrwt>
<totfact> 0.40774823E+04</totfact>
</mgrwt>
<rwgt>
<wgt id='1'> +6.5362899e+02 </wgt>
<wgt id='2'> +5.4968105e+02 </wgt>
<wgt id='3'> +5.0481800e+02 </wgt>
<wgt id='4'> +6.5362899e+02 </wgt>
<wgt id='5'> +4.8733955e+02 </wgt>
<wgt id='6'> +6.1523828e+02 </wgt>
<wgt id='7'> +5.1121837e+02 </wgt>
<wgt id='8'> +4.6895277e+02 </wgt>
<wgt id='9'> +6.1523828e+02 </wgt>
<wgt id='10'> +4.5276402e+02 </wgt>
<wgt id='11'> +5.7152815e+02 </wgt>
<wgt id='12'> +4.7505932e+02 </wgt>
<wgt id='13'> +4.3589957e+02 </wgt>
<wgt id='14'> +5.7152815e+02 </wgt>
<wgt id='15'> +4.2090871e+02 </wgt>
<wgt id='16'> +5.3631851e+02 </wgt>
<wgt id='17'> +4.6123842e+02 </wgt>
<wgt id='18'> +4.2617728e+02 </wgt>
<wgt id='19'> +5.3631851e+02 </wgt>
<wgt id='20'> +4.1221346e+02 </wgt>
<wgt id='21'> +4.2896431e+02 </wgt>
<wgt id='22'> +3.9589915e+02 </wgt>
<wgt id='23'> +5.0481800e+02 </wgt>
<wgt id='24'> +3.8296794e+02 </wgt>
<wgt id='25'> +4.6895277e+02 </wgt>
<wgt id='26'> +3.9862319e+02 </wgt>
<wgt id='27'> +3.6799499e+02 </wgt>
<wgt id='28'> +4.6895277e+02 </wgt>
<wgt id='29'> +3.5602331e+02 </wgt>
<wgt id='30'> +4.5277063e+02 </wgt>
<wgt id='31'> +3.9288102e+02 </wgt>
<wgt id='32'> +3.6455030e+02 </wgt>
<wgt id='33'> +4.5277063e+02 </wgt>
<wgt id='34'> +3.5320682e+02 </wgt>
<wgt id='35'> +4.2617728e+02 </wgt>
<wgt id='36'> +3.6539007e+02 </wgt>
<wgt id='37'> +3.3865051e+02 </wgt>
<wgt id='38'> +4.2617728e+02 </wgt>
<wgt id='39'> +3.2814767e+02 </wgt>
<wgt id='40'> +3.9589915e+02 </wgt>
<wgt id='41'> +3.3954562e+02 </wgt>
<wgt id='42'> +3.1478140e+02 </wgt>
<wgt id='43'> +3.9589915e+02 </wgt>
<wgt id='44'> +3.0506005e+02 </wgt>
<wgt id='45'> +5.0481800e+02 </wgt>
<wgt id='46'> +5.1251352e+02 </wgt>
<wgt id='47'> +5.2197553e+02 </wgt>
<wgt id='48'> +5.0863363e+02 </wgt>
<wgt id='49'> +4.9915509e+02 </wgt>
<wgt id='50'> +5.9858010e+02 </wgt>
<wgt id='51'> +4.9345582e+02 </wgt>
<wgt id='52'> +5.0335199e+02 </wgt>
<wgt id='53'> +5.0253565e+02 </wgt>
<wgt id='54'> +5.1092907e+02 </wgt>
<wgt id='55'> +4.6824751e+02 </wgt>
<wgt id='56'> +4.6354352e+02 </wgt>
<wgt id='57'> +5.0108358e+02 </wgt>
<wgt id='58'> +4.9849472e+02 </wgt>
<wgt id='59'> +5.1464488e+02 </wgt>
<wgt id='60'> +4.9723419e+02 </wgt>
<wgt id='61'> +4.5729354e+02 </wgt>
<wgt id='62'> +4.9645908e+02 </wgt>
<wgt id='63'> +5.0635753e+02 </wgt>
<wgt id='64'> +4.9595937e+02 </wgt>
<wgt id='65'> +5.7301572e+02 </wgt>
<wgt id='66'> +4.9529998e+02 </wgt>
<wgt id='67'> +5.0839897e+02 </wgt>
<wgt id='68'> +5.5208096e+02 </wgt>
<wgt id='69'> +5.0143727e+02 </wgt>
<wgt id='70'> +4.9784405e+02 </wgt>
<wgt id='71'> +5.1133098e+02 </wgt>
<wgt id='72'> +4.8575217e+02 </wgt>
<wgt id='73'> +4.9185194e+02 </wgt>
<wgt id='74'> +5.2966702e+02 </wgt>
<wgt id='75'> +5.1680215e+02 </wgt>
<wgt id='76'> +4.9533783e+02 </wgt>
<wgt id='77'> +4.9232723e+02 </wgt>
<wgt id='78'> +4.8995026e+02 </wgt>
<wgt id='79'> +4.9436366e+02 </wgt>
<wgt id='80'> +4.9374830e+02 </wgt>
<wgt id='81'> +4.9536994e+02 </wgt>
<wgt id='82'> +5.0466042e+02 </wgt>
<wgt id='83'> +5.1302818e+02 </wgt>
<wgt id='84'> +5.4667427e+02 </wgt>
<wgt id='85'> +5.1991809e+02 </wgt>
<wgt id='86'> +5.0592316e+02 </wgt>
<wgt id='87'> +5.0722602e+02 </wgt>
<wgt id='88'> +5.0960302e+02 </wgt>
<wgt id='89'> +5.1300894e+02 </wgt>
<wgt id='90'> +5.1308907e+02 </wgt>
<wgt id='91'> +5.2362265e+02 </wgt>
<wgt id='92'> +4.6145389e+02 </wgt>
<wgt id='93'> +5.0066720e+02 </wgt>
<wgt id='94'> +4.9450605e+02 </wgt>
<wgt id='95'> +4.9300628e+02 </wgt>
<wgt id='96'> +5.4322759e+02 </wgt>
<wgt id='97'> +5.0346460e+02 </wgt>
<wgt id='98'> +4.8991905e+02 </wgt>
<wgt id='99'> +4.8231569e+02 </wgt>
<wgt id='100'> +4.8007551e+02 </wgt>
<wgt id='101'> +5.4859488e+02 </wgt>
<wgt id='102'> +5.1006613e+02 </wgt>
<wgt id='103'> +5.4501911e+02 </wgt>
<wgt id='104'> +5.0821976e+02 </wgt>
<wgt id='105'> +5.2162540e+02 </wgt>
<wgt id='106'> +4.6149529e+02 </wgt>
<wgt id='107'> +4.8652683e+02 </wgt>
<wgt id='108'> +4.4761579e+02 </wgt>
<wgt id='109'> +4.7457753e+02 </wgt>
<wgt id='110'> +5.0159294e+02 </wgt>
<wgt id='111'> +4.9097189e+02 </wgt>
<wgt id='112'> +4.7909882e+02 </wgt>
<wgt id='113'> +4.6667145e+02 </wgt>
<wgt id='114'> +4.9652197e+02 </wgt>
<wgt id='115'> +4.8729386e+02 </wgt>
<wgt id='116'> +5.1694629e+02 </wgt>
<wgt id='117'> +5.0322958e+02 </wgt>
<wgt id='118'> +5.2575183e+02 </wgt>
<wgt id='119'> +4.9018987e+02 </wgt>
<wgt id='120'> +4.9529177e+02 </wgt>
<wgt id='121'> +4.9320512e+02 </wgt>
<wgt id='122'> +4.9903643e+02 </wgt>
<wgt id='123'> +5.0937908e+02 </wgt>
<wgt id='124'> +5.5211251e+02 </wgt>
<wgt id='125'> +5.5595166e+02 </wgt>
<wgt id='126'> +5.2189263e+02 </wgt>
<wgt id='127'> +5.1856215e+02 </wgt>
<wgt id='128'> +4.6240998e+02 </wgt>
<wgt id='129'> +5.6711160e+02 </wgt>
<wgt id='130'> +5.0280673e+02 </wgt>
<wgt id='131'> +5.3031552e+02 </wgt>
<wgt id='132'> +5.1933401e+02 </wgt>
<wgt id='133'> +5.1329202e+02 </wgt>
<wgt id='134'> +4.8572999e+02 </wgt>
<wgt id='135'> +5.1355061e+02 </wgt>
<wgt id='136'> +5.0816767e+02 </wgt>
<wgt id='137'> +4.8181621e+02 </wgt>
<wgt id='138'> +4.7050091e+02 </wgt>
<wgt id='139'> +5.1827422e+02 </wgt>
<wgt id='140'> +5.2490279e+02 </wgt>
<wgt id='141'> +5.1038645e+02 </wgt>
<wgt id='142'> +4.8440467e+02 </wgt>
<wgt id='143'> +5.1000711e+02 </wgt>
<wgt id='144'> +4.9732661e+02 </wgt>
<wgt id='145'> +5.0314795e+02 </wgt>
</rwgt>
</event>
<event>
 4      1 +5.0481800e+02 2.02665300e+02 7.54677100e-03 1.14751000e-01
       21 -1    0    0  501  502 +0.0000000000e+00 +0.0000000000e+00 +1.0831514641e+03 1.0831514641e+03 0.0000000000e+00 0.0000e+00 1.0000e+00
       21 -1    0    0  502  503 -0.0000000000e+00 -0.0000000000e+00 -4.5195166574e+01 4.5195166574e+01 0.0000000000e+00 0.0000e+00 1.0000e+00
        6  1    1    2  501    0 -7.3739041000e+01 +7.5543120972e+01 +7.4533054742e+02 7.7239292735e+02 1.7300000000e+02 0.0000e+00 1.0000e+00
       -6  1    1    2    0  503 +7.3739041000e+01 -7.5543120972e+01 +2.9262575014e+02 3.5595370336e+02 1.7300000000e+02 0.0000e+00 1.0000e+00
<mgrwt>
<rscale>  2 0.20266526E+03</rscale>
<asrwt>0</asrwt>
<pdfrwt beam="1">  1       21 0.16663867E+00 0.20266526E+03</pdfrwt>
<pdfrwt beam="2">  1       21 0.69531034E-02 0.20266526E+03</pdfrwt>
<totfact> 0.34272901E+04</totfact>
</mgrwt>
<rwgt>
<wgt id='1'> +6.6550499e+02 </wgt>
<wgt id='2'> +6.3287788e+02 </wgt>
<wgt id='3'> +5.0481800e+02 </wgt>
<wgt id='4'> +6.6550499e+02 </wgt>
<wgt id='5'> +4.8806189e+02 </wgt>
<wgt id='6'> +6.1784637e+02 </wgt>
<wgt id='7'> +5.8540273e+02 </wgt>
<wgt id='8'> +4.6181316e+02 </wgt>
<wgt id='9'> +6.1784637e+02 </wgt>
<wgt id='10'> +4.4657827e+02 </wgt>
<wgt id='11'> +5.6521279e+02 </wgt>
<wgt id='12'> +5.3570200e+02 </wgt>
<wgt id='13'> +4.2310483e+02 </wgt>
<wgt id='14'> +5.6521278e+02 </wgt>
<wgt id='15'> +4.0924081e+02 </wgt>
<wgt id='16'> +5.4375799e+02 </wgt>
<wgt id='17'> +5.2064388e+02 </wgt>
<wgt id='18'> +4.2554255e+02 </wgt>
<wgt id='19'> +5.4375798e+02 </wgt>
<wgt id='20'> +4.1212762e+02 </wgt>
<wgt id='21'> +4.8158793e+02 </wgt>
<wgt id='22'> +3.8929110e+02 </wgt>
<wgt id='23'> +5.0481800e+02 </wgt>
<wgt id='24'> +3.7709816e+02 </wgt>
<wgt id='25'> +4.6181317e+02 </wgt>
<wgt id='26'> +4.4070108e+02 </wgt>
<wgt id='27'> +3.5666143e+02 </wgt>
<wgt id='28'> +4.6181316e+02 </wgt>
<wgt id='29'> +3.4556978e+02 </wgt>
<wgt id='30'> +4.5836750e+02 </wgt>
<wgt id='31'> +4.3993233e+02 </wgt>
<wgt id='32'> +3.6352101e+02 </wgt>
<wgt id='33'> +4.5836749e+02 </wgt>
<wgt id='34'> +3.5260953e+02 </wgt>
<wgt id='35'> +4.2554255e+02 </wgt>
<wgt id='36'> +4.0693094e+02 </wgt>
<wgt id='37'> +3.3255310e+02 </wgt>
<wgt id='38'> +4.2554255e+02 </wgt>
<wgt id='39'> +3.2263890e+02 </wgt>
<wgt id='40'> +3.8929110e+02 </wgt>
<wgt id='41'> +3.7238247e+02 </wgt>
<wgt id='42'> +3.0467910e+02 </wgt>
<wgt id='43'> +3.8929110e+02 </wgt>
<wgt id='44'> +2.9566375e+02 </wgt>
<wgt id='45'> +5.0481800e+02 </wgt>
<wgt id='46'> +5.1886625e+02 </wgt>
<wgt id='47'> +5.1771207e+02 </wgt>
<wgt id='48'> +5.0450490e+02 </wgt>
<wgt id='49'> +4.7602160e+02 </wgt>
<wgt id='50'> +5.9138849e+02 </wgt>
<wgt id='51'> +4.8067640e+02 </wgt>
<wgt id='52'> +4.8589186e+02 </wgt>
<wgt id='53'> +5.0049011e+02 </wgt>
<wgt id='54'> +5.2949265e+02 </wgt>
<wgt id='55'> +5.3889388e+02 </wgt>
<wgt id='56'> +4.7544183e+02 </wgt>
<wgt id='57'> +5.3000706e+02 </wgt>
<wgt id='58'> +4.7024387e+02 </wgt>
<wgt id='59'> +5.4474789e+02 </wgt>
<wgt id='60'> +5.0912752e+02 </wgt>
<wgt id='61'> +4.5276373e+02 </wgt>
<wgt id='62'> +4.7616046e+02 </wgt>
<wgt id='63'> +5.2367696e+02 </wgt>
<wgt id='64'> +5.0329620e+02 </wgt>
<wgt id='65'> +4.9108797e+02 </wgt>
<wgt id='66'> +5.0530735e+02 </wgt>
<wgt id='67'> +5.0703870e+02 </wgt>
<wgt id='68'> +5.8920730e+02 </wgt>
<wgt id='69'> +5.2811592e+02 </wgt>
<wgt id='70'> +5.2456654e+02 </wgt>
<wgt id='71'> +4.8450127e+02 </wgt>
<wgt id='72'> +4.7545107e+02 </wgt>
<wgt id='73'> +4.6728463e+02 </wgt>
<wgt id='74'> +5.6083327e+02 </wgt>
<wgt id='75'> +5.3321731e+02 </wgt>
<wgt id='76'> +5.1445632e+02 </wgt>
<wgt id='77'> +4.8663095e+02 </wgt>
<wgt id='78'> +4.5020617e+02 </wgt>
<wgt id='79'> +5.2634223e+02 </wgt>
<wgt id='80'> +4.6347887e+02 </wgt>
<wgt id='81'> +5.1204038e+02 </wgt>
<wgt id='82'> +4.8926431e+02 </wgt>
<wgt id='83'> +4.9925528e+02 </wgt>
<wgt id='84'> +5.0701595e+02 </wgt>
<wgt id='85'> +4.7459385e+02 </wgt>
<wgt id='86'> +5.2019518e+02 </wgt>
<wgt id='87'> +5.0283028e+02 </wgt>
<wgt id='88'> +4.9378454e+02 </wgt>
<wgt id='89'> +4.6138589e+02 </wgt>
<wgt id='90'> +4.8924391e+02 </wgt>
<wgt id='91'> +4.6581201e+02 </wgt>
<wgt id='92'> +4.7180973e+02 </wgt>
<wgt id='93'> +5.0752456e+02 </wgt>
<wgt id='94'> +4.7207107e+02 </wgt>
<wgt id='95'> +5.2471863e+02 </wgt>
<wgt id='96'> +5.2786684e+02 </wgt>
<wgt id='97'> +4.7158247e+02 </wgt>
<wgt id='98'> +5.2463343e+02 </wgt>
<wgt id='99'> +4.4392162e+02 </wgt>
<wgt id='100'> +4.1477555e+02 </wgt>
<wgt id='101'> +5.7885301e+02 </wgt>
<wgt id='102'> +5.5315938e+02 </wgt>
<wgt id='103'> +5.0325513e+02 </wgt>
<wgt id='104'> +5.2787070e+02 </wgt>
<wgt id='105'> +5.1896398e+02 </wgt>
<wgt id='106'> +4.8191001e+02 </wgt>
<wgt id='107'> +4.8325338e+02 </wgt>
<wgt id='108'> +4.6491598e+02 </wgt>
<wgt id='109'> +4.9421822e+02 </wgt>
<wgt id='110'> +4.7863050e+02 </wgt>
<wgt id='111'> +4.9272341e+02 </wgt>
<wgt id='112'> +5.1111216e+02 </wgt>
<wgt id='113'> +5.0783680e+02 </wgt>
<wgt id='114'> +5.1503730e+02 </wgt>
<wgt id='115'> +4.6484454e+02 </wgt>
<wgt id='116'> +5.4289150e+02 </wgt>
<wgt id='117'> +4.9317940e+02 </wgt>
<wgt id='118'> +5.2460112e+02 </wgt>
<wgt id='119'> +5.3351695e+02 </wgt>
<wgt id='120'> +5.0242835e+02 </wgt>
<wgt id='121'> +5.0169710e+02 </wgt>
<wgt id='122'> +4.9715795e+02 </wgt>
<wgt id='123'> +4.9091638e+02 </wgt>
<wgt id='124'> +5.6669946e+02 </wgt>
<wgt id='125'> +6.0655101e+02 </wgt>
<wgt id='126'> +5.0176512e+02 </wgt>
<wgt id='127'> +4.9513025e+02 </wgt>
<wgt id='128'> +4.7526169e+02 </wgt>
<wgt id='129'> +5.3133998e+02 </wgt>
<wgt id='130'> +4.8535668e+02 </wgt>
<wgt id='131'> +4.8409476e+02 </wgt>
<wgt id='132'> +5.5094702e+02 </wgt>
<wgt id='133'> +5.4083613e+02 </wgt>
<wgt id='134'> +5.1929417e+02 </wgt>
<wgt id='135'> +4.9201122e+02 </wgt>
<wgt id='136'> +5.7606862e+02 </wgt>
<wgt id='137'> +5.1046389e+02 </wgt>
<wgt id='138'> +5.0134738e+02 </wgt>
<wgt id='139'> +5.2039995e+02 </wgt>
<wgt id='140'> +4.9876149e+02 </wgt>
<wgt id='141'> +5.4903390e+02 </wgt>
<wgt id='142'> +3.9835373e+02 </wgt>
<wgt id='143'> +5.1984373e+02 </wgt>
<wgt id='144'> +4.7191101e+02 </wgt>
<wgt id='145'> +4.7620660e+02 </wgt>
</rwgt>
</event>
<event>
 4      1 +5.0481800e+02 3.73610800e+02 7.54677100e-03 1.05332100e-01
       21 -1    0    0  501  502 +0.0000000000e+00 +0.0000000000e+00 +4.9265606980e+02 4.9265606980e+02 0.0000000000e+00 0.0000e+00 1.0000e+00
       21 -1    0    0  502  503 -0.0000000000e+00 -0.0000000000e+00 -4.3803739819e+02 4.3803739819e+02 0.0000000000e+00 0.0000e+00 1.0000e+00
        6  1    1    2  501    0 +1.8854274177e+02 +2.7222726875e+02 +3.0385975215e+02 4.8157637017e+02 1.7300000000e+02 0.0000e+00 1.0000e+00
       -6  1    1    2    0  503 -1.8854274177e+02 -2.7222726875e+02 -2.4924108054e+02 4.4911709782e+02 1.7300000000e+02 0.0000e+00 1.0000e+00
<mgrwt>
<rscale>  2 0.37361083E+03</rscale>
<asrwt>0</asrwt>
<pdfrwt beam="1">  1       21 0.75793241E-01 0.37361083E+03</pdfrwt>
<pdfrwt beam="2">  1       21 0.67390369E-01 0.37361083E+03</pdfrwt>
<totfact> 0.28019341E+03</totfact>
</mgrwt>
<rwgt>
<wgt id='1'> +6.7331068e+02 </wgt>
<wgt id='2'> +5.1424241e+02 </wgt>
<wgt id='3'> +5.0481800e+02 </wgt>
<wgt id='4'> +6.7331068e+02 </wgt>
<wgt id='5'> +4.6293467e+02 </wgt>
<wgt id='6'> +6.0014578e+02 </wgt>
<wgt id='7'> +4.6025184e+02 </wgt>
<wgt id='8'> +4.5195665e+02 </wgt>
<wgt id='9'> +6.0014579e+02 </wgt>
<wgt id='10'> +4.1506805e+02 </wgt>
<wgt id='11'> +5.3730231e+02 </wgt>
<wgt id='12'> +4.1384947e+02 </wgt>
<wgt id='13'> +4.0651464e+02 </wgt>
<wgt id='14'> +5.3730231e+02 </wgt>
<wgt id='15'> +3.7387098e+02 </wgt>
<wgt id='16'> +5.6636131e+02 </wgt>
<wgt id='17'> +4.3827817e+02 </wgt>
<wgt id='18'> +4.3060678e+02 </wgt>
<wgt id='19'> +5.6636131e+02 </wgt>
<wgt id='20'> +3.9641444e+02 </wgt>
<wgt id='21'> +3.9226312e+02 </wgt>
<wgt id='22'> +3.8551636e+02 </wgt>
<wgt id='23'> +5.0481800e+02 </wgt>
<wgt id='24'> +3.5542589e+02 </wgt>
<wgt id='25'> +4.5195665e+02 </wgt>
<wgt id='26'> +3.5271534e+02 </wgt>
<wgt id='27'> +3.4675460e+02 </wgt>
<wgt id='28'> +4.5195665e+02 </wgt>
<wgt id='29'> +3.2014852e+02 </wgt>
<wgt id='30'> +4.8310286e+02 </wgt>
<wgt id='31'> +3.7798159e+02 </wgt>
<wgt id='32'> +3.7163519e+02 </wgt>
<wgt id='33'> +4.8310286e+02 </wgt>
<wgt id='34'> +3.4326697e+02 </wgt>
<wgt id='35'> +4.3060678e+02 </wgt>
<wgt id='36'> +3.3829712e+02 </wgt>
<wgt id='37'> +3.3271991e+02 </wgt>
<wgt id='38'> +4.3060678e+02 </wgt>
<wgt id='39'> +3.0777378e+02 </wgt>
<wgt id='40'> +3.8551636e+02 </wgt>
<wgt id='41'> +3.0419016e+02 </wgt>
<wgt id='42'> +2.9926656e+02 </wgt>
<wgt id='43'> +3.8551636e+02 </wgt>
<wgt id='44'> +2.7722607e+02 </wgt>
<wgt id='45'> +5.0481800e+02 </wgt>
<wgt id='46'> +5.2753206e+02 </wgt>
<wgt id='47'> +5.3131918e+02 </wgt>
<wgt id='48'> +5.1828218e+02 </wgt>
<wgt id='49'> +4.9631367e+02 </wgt>
<wgt id='50'> +6.4215205e+02 </wgt>
<wgt id='51'> +4.9297304e+02 </wgt>
<wgt id='52'> +5.0499225e+02 </wgt>
<wgt id='53'> +4.9205536e+02 </wgt>
<wgt id='54'> +5.1235421e+02 </wgt>
<wgt id='55'> +4.6919395e+02 </wgt>
<wgt id='56'> +4.4849146e+02 </wgt>
<wgt id='57'> +5.0232564e+02 </wgt>
<wgt id='58'> +4.8270308e+02 </wgt>
<wgt id='59'> +5.3220593e+02 </wgt>
<wgt id='60'> +5.1110863e+02 </wgt>
<wgt id='61'> +4.2752294e+02 </wgt>
<wgt id='62'> +4.9800515e+02 </wgt>
<wgt id='63'> +5.0702242e+02 </wgt>
<wgt id='64'> +4.8298598e+02 </wgt>
<wgt id='65'> +5.6838913e+02 </wgt>
<wgt id='66'> +4.9956475e+02 </wgt>
<wgt id='67'> +5.0819627e+02 </wgt>
<wgt id='68'> +5.7331467e+02 </wgt>
<wgt id='69'> +5.2320446e+02 </wgt>
<wgt id='70'> +4.9667475e+02 </wgt>
<wgt id='71'> +5.0933308e+02 </wgt>
<wgt id='72'> +4.5899880e+02 </wgt>
<wgt id='73'> +4.8261116e+02 </wgt>
<wgt id='74'> +5.4819660e+02 </wgt>
<wgt id='75'> +5.2224426e+02 </wgt>
<wgt id='76'> +4.9262500e+02 </wgt>
<wgt id='77'> +5.0053689e+02 </wgt>
<wgt id='78'> +4.7183394e+02 </wgt>
<wgt id='79'> +5.0547016e+02 </wgt>
<wgt id='80'> +4.8597725e+02 </wgt>
<wgt id='81'> +4.9049522e+02 </wgt>
<wgt id='82'> +4.9481749e+02 </wgt>
<wgt id='83'> +5.2073788e+02 </wgt>
<wgt id='84'> +5.5341694e+02 </wgt>
<wgt id='85'> +5.1692604e+02 </wgt>
<wgt id='86'> +5.1650853e+02 </wgt>
<wgt id='87'> +5.1202435e+02 </wgt>
<wgt id='88'> +5.1382672e+02 </wgt>
<wgt id='89'> +5.1589622e+02 </wgt>
<wgt id='90'> +5.1669806e+02 </wgt>
<wgt id='91'> +5.1638439e+02 </wgt>
<wgt id='92'> +4.3573074e+02 </wgt>
<wgt id='93'> +5.0927310e+02 </wgt>
<wgt id='94'> +4.8226702e+02 </wgt>
<wgt id='95'> +4.8814142e+02 </wgt>
<wgt id='96'> +5.6220504e+02 </wgt>
<wgt id='97'> +4.9294705e+02 </wgt>
<wgt id='98'> +4.9594800e+02 </wgt>
<wgt id='99'> +4.7295836e+02 </wgt>
<wgt id='100'> +4.5225851e+02 </wgt>
<wgt id='101'> +5.8273135e+02 </wgt>
<wgt id='102'> +5.3995850e+02 </wgt>
<wgt id='103'> +5.5432112e+02 </wgt>
<wgt id='104'> +5.1893222e+02 </wgt>
<wgt id='105'> +5.1110277e+02 </wgt>
<wgt id='106'> +4.3925252e+02 </wgt>
<wgt id='107'> +4.6242969e+02 </wgt>
<wgt id='108'> +4.2616717e+02 </wgt>
<wgt id='109'> +4.6107254e+02 </wgt>
<wgt id='110'> +4.9418692e+02 </wgt>
<wgt id='111'> +4.8267117e+02 </wgt>
<wgt id='112'> +4.6721691e+02 </wgt>
<wgt id='113'> +4.5742141e+02 </wgt>
<wgt id='114'> +4.7392609e+02 </wgt>
<wgt id='115'> +4.6341965e+02 </wgt>
<wgt id='116'> +5.4216868e+02 </wgt>
<wgt id='117'> +4.9415130e+02 </wgt>
<wgt id='118'> +5.4591082e+02 </wgt>
<wgt id='119'> +4.8476935e+02 </wgt>
<wgt id='120'> +4.8141732e+02 </wgt>
<wgt id='121'> +4.8550593e+02 </wgt>
<wgt id='122'> +4.9607289e+02 </wgt>
<wgt id='123'> +5.1443325e+02 </wgt>
<wgt id='124'> +5.7972343e+02 </wgt>
<wgt id='125'> +5.8350017e+02 </wgt>
<wgt id='126'> +5.3004839e+02 </wgt>
<wgt id='127'> +5.2445209e+02 </wgt>
<wgt id='128'> +4.5098776e+02 </wgt>
<wgt id='129'> +5.7257257e+02 </wgt>
<wgt id='130'> +5.0647464e+02 </wgt>
<wgt id='131'> +5.2573899e+02 </wgt>
<wgt id='132'> +5.3705208e+02 </wgt>
<wgt id='133'> +5.3154438e+02 </wgt>
<wgt id='134'> +4.9130377e+02 </wgt>
<wgt id='135'> +5.1169568e+02 </wgt>
<wgt id='136'> +5.2510802e+02 </wgt>
<wgt id='137'> +4.9113870e+02 </wgt>
<wgt id='138'> +4.9338088e+02 </wgt>
<wgt id='139'> +5.2633298e+02 </wgt>
<wgt id='140'> +5.1395197e+02 </wgt>
<wgt id='141'> +5.1861017e+02 </wgt>
<wgt id='142'> +4.5926415e+02 </wgt>
<wgt id='143'> +5.1897749e+02 </wgt>
<wgt id='144'> +4.8403030e+02 </wgt>
<wgt id='145'> +5.0250872e+02 </wgt>
</rwgt>
</event>
<event>
 4      1 +5.0481800e+02 2.11266000e+02 7.54677100e-03 1.14056700e-01
        1 -1    0    0  502    0 +0.0000000000e+00 +0.0000000000e+00 +3.4637431235e+02 3.4637431235e+02 0.0000000000e+00 0.0000e+00 -1.0000e+00
       -1 -1    0    0    0  501 -0.0000000000e+00 -0.0000000000e+00 -1.3337159622e+02 1.3337159622e+02 0.0000000000e+00 0.0000e+00 1.0000e+00
        6  1    1    2  502    0 -5.6098119865e-01 -1.2126001312e+02 +1.5062614065e+02 2.5946394688e+02 1.7300000000e+02 0.0000e+00 1.0000e+00
       -6  1    1    2    0  501 +5.6098119865e-01 +1.2126001312e+02 +6.2376575478e+01 2.2028196170e+02 1.7300000000e+02 0.0000e+00 1.0000e+00
<mgrwt>
<rscale>  2 0.21126596E+03</rscale>
<asrwt>0</asrwt>
<pdfrwt beam="1">  1        1 0.53288355E-01 0.21126596E+03</pdfrwt>
<pdfrwt beam="2">  1       -1 0.20518707E-01 0.21126596E+03</pdfrwt>
<totfact> 0.14041474E+03</totfact>
</mgrwt>
<rwgt>
<wgt id='1'> +6.0710001e+02 </wgt>
<wgt id='2'> +5.2556522e+02 </wgt>
<wgt id='3'> +5.0481800e+02 </wgt>
<wgt id='4'> +6.0710001e+02 </wgt>
<wgt id='5'> +5.0275996e+02 </wgt>
<wgt id='6'> +6.1640939e+02 </wgt>
<wgt id='7'> +5.3091359e+02 </wgt>
<wgt id='8'> +5.0923580e+02 </wgt>
<wgt id='9'> +6.1640939e+02 </wgt>
<wgt id='10'> +5.0708731e+02 </wgt>
<wgt id='11'> +6.2180376e+02 </wgt>
<wgt id='12'> +5.3343620e+02 </wgt>
<wgt id='13'> +5.1110712e+02 </wgt>
<wgt id='14'> +6.2180376e+02 </wgt>
<wgt id='15'> +5.0889555e+02 </wgt>
<wgt id='16'> +4.9719394e+02 </wgt>
<wgt id='17'> +4.4152664e+02 </wgt>
<wgt id='18'> +4.2590622e+02 </wgt>
<wgt id='19'> +4.9719394e+02 </wgt>
<wgt id='20'> +4.2430928e+02 </wgt>
<wgt id='21'> +4.4601980e+02 </wgt>
<wgt id='22'> +4.2963344e+02 </wgt>
<wgt id='23'> +5.0481800e+02 </wgt>
<wgt id='24'> +4.2796139e+02 </wgt>
<wgt id='25'> +5.0923580e+02 </wgt>
<wgt id='26'> +4.4813904e+02 </wgt>
<wgt id='27'> +4.3121223e+02 </wgt>
<wgt id='28'> +5.0923580e+02 </wgt>
<wgt id='29'> +4.2948747e+02 </wgt>
<wgt id='30'> +4.1947393e+02 </wgt>
<wgt id='31'> +3.7633797e+02 </wgt>
<wgt id='32'> +3.6410265e+02 </wgt>
<wgt id='33'> +4.1947393e+02 </wgt>
<wgt id='34'> +3.6284778e+02 </wgt>
<wgt id='35'> +4.2590621e+02 </wgt>
<wgt id='36'> +3.8016775e+02 </wgt>
<wgt id='37'> +3.6728901e+02 </wgt>
<wgt id='38'> +4.2590622e+02 </wgt>
<wgt id='39'> +3.6597088e+02 </wgt>
<wgt id='40'> +4.2963344e+02 </wgt>
<wgt id='41'> +3.8197410e+02 </wgt>
<wgt id='42'> +3.6863871e+02 </wgt>
<wgt id='43'> +4.2963344e+02 </wgt>
<wgt id='44'> +3.6727591e+02 </wgt>
<wgt id='45'> +5.0481800e+02 </wgt>
<wgt id='46'> +5.1332341e+02 </wgt>
<wgt id='47'> +5.0644444e+02 </wgt>
<wgt id='48'> +4.9002845e+02 </wgt>
<wgt id='49'> +4.7450880e+02 </wgt>
<wgt id='50'> +4.6010492e+02 </wgt>
<wgt id='51'> +5.0491697e+02 </wgt>
<wgt id='52'> +5.2741228e+02 </wgt>
<wgt id='53'> +5.0918845e+02 </wgt>
<wgt id='54'> +4.9842330e+02 </wgt>
<wgt id='55'> +5.0489352e+02 </wgt>
<wgt id='56'> +5.8358300e+02 </wgt>
<wgt id='57'> +4.6852040e+02 </wgt>
<wgt id='58'> +5.0481501e+02 </wgt>
<wgt id='59'> +4.4396201e+02 </wgt>
<wgt id='60'> +5.0906279e+02 </wgt>
<wgt id='61'> +5.2407063e+02 </wgt>
<wgt id='62'> +5.3439271e+02 </wgt>
<wgt id='63'> +5.3060481e+02 </wgt>
<wgt id='64'> +5.1036690e+02 </wgt>
<wgt id='65'> +4.9955139e+02 </wgt>
<wgt id='66'> +5.0023486e+02 </wgt>
<wgt id='67'> +5.4070784e+02 </wgt>
<wgt id='68'> +4.3969164e+02 </wgt>
<wgt id='69'> +4.8746137e+02 </wgt>
<wgt id='70'> +4.9667393e+02 </wgt>
<wgt id='71'> +5.1730809e+02 </wgt>
<wgt id='72'> +4.9138824e+02 </wgt>
<wgt id='73'> +5.2262877e+02 </wgt>
<wgt id='74'> +4.5451847e+02 </wgt>
<wgt id='75'> +5.1179499e+02 </wgt>
<wgt id='76'> +5.2754355e+02 </wgt>
<wgt id='77'> +5.2788953e+02 </wgt>
<wgt id='78'> +5.1684523e+02 </wgt>
<wgt id='79'> +5.2543762e+02 </wgt>
<wgt id='80'> +5.6477155e+02 </wgt>
<wgt id='81'> +5.0380081e+02 </wgt>
<wgt id='82'> +4.7920391e+02 </wgt>
<wgt id='83'> +4.7099549e+02 </wgt>
<wgt id='84'> +4.9525922e+02 </wgt>
<wgt id='85'> +5.1430166e+02 </wgt>
<wgt id='86'> +5.2461782e+02 </wgt>
<wgt id='87'> +5.1617011e+02 </wgt>
<wgt id='88'> +5.0522527e+02 </wgt>
<wgt id='89'> +5.1249268e+02 </wgt>
<wgt id='90'> +5.5106132e+02 </wgt>
<wgt id='91'> +4.8509848e+02 </wgt>
<wgt id='92'> +5.2738412e+02 </wgt>
<wgt id='93'> +5.3100220e+02 </wgt>
<wgt id='94'> +5.5557240e+02 </wgt>
<wgt id='95'> +5.0802454e+02 </wgt>
<wgt id='96'> +4.7740851e+02 </wgt>
<wgt id='97'> +5.4465270e+02 </wgt>
<wgt id='98'> +5.2550182e+02 </wgt>
<wgt id='99'> +5.4424228e+02 </wgt>
<wgt id='100'> +5.1042029e+02 </wgt>
<wgt id='101'> +4.3248336e+02 </wgt>
<wgt id='102'> +4.8206734e+02 </wgt>
<wgt id='103'> +4.6051652e+02 </wgt>
<wgt id='104'> +4.8403778e+02 </wgt>
<wgt id='105'> +4.8695223e+02 </wgt>
<wgt id='106'> +5.2535833e+02 </wgt>
<wgt id='107'> +4.8180092e+02 </wgt>
<wgt id='108'> +5.6964882e+02 </wgt>
<wgt id='109'> +5.1020570e+02 </wgt>
<wgt id='110'> +5.3436900e+02 </wgt>
<wgt id='111'> +5.1604653e+02 </wgt>
<wgt id='112'> +4.9860337e+02 </wgt>
<wgt id='113'> +5.0560185e+02 </wgt>
<wgt id='114'> +4.9186581e+02 </wgt>
<wgt id='115'> +5.3075869e+02 </wgt>
<wgt id='116'> +4.5971402e+02 </wgt>
<wgt id='117'> +5.0109256e+02 </wgt>
<wgt id='118'> +4.6837035e+02 </wgt>
<wgt id='119'> +5.0167164e+02 </wgt>
<wgt id='120'> +5.0090048e+02 </wgt>
<wgt id='121'> +4.7739374e+02 </wgt>
<wgt id='122'> +5.0997575e+02 </wgt>
<wgt id='123'> +5.4799953e+02 </wgt>
<wgt id='124'> +4.6025418e+02 </wgt>
<wgt id='125'> +4.3745819e+02 </wgt>
<wgt id='126'> +5.2722321e+02 </wgt>
<wgt id='127'> +5.1832305e+02 </wgt>
<wgt id='128'> +5.3669898e+02 </wgt>
<wgt id='129'> +4.4328356e+02 </wgt>
<wgt id='130'> +4.8933446e+02 </wgt>
<wgt id='131'> +5.1052905e+02 </wgt>
<wgt id='132'> +4.8107569e+02 </wgt>
<wgt id='133'> +5.0546584e+02 </wgt>
<wgt id='134'> +5.0138086e+02 </wgt>
<wgt id='135'> +4.6410890e+02 </wgt>
<wgt id='136'> +4.9072398e+02 </wgt>
<wgt id='137'> +5.1449901e+02 </wgt>
<wgt id='138'> +5.2390247e+02 </wgt>
<wgt id='139'> +4.9125125e+02 </wgt>
<wgt id='140'> +4.8612219e+02 </wgt>
<wgt id='141'> +4.8467724e+02 </wgt>
<wgt id='142'> +5.9959887e+02 </wgt>
<wgt id='143'> +5.1084383e+02 </wgt>
<wgt id='144'> +5.1714130e+02 </wgt>
<wgt id='145'> +5.1050365e+02 </wgt>
</rwgt>
</event>
<event>
 4      1 +5.0481800e+02 1.97716400e+02 7.54677100e-03 1.15168000e-01
       -2 -1    0    0    0  501 -0.0000000000e+00 +0.0000000000e+00 +4.7397024772e+02 4.7397024772e+02 0.0000000000e+00 0.0000e+00 1.0000e+00
        2 -1    0    0  502    0 +0.0000000000e+00 -0.0000000000e+00 -8.2718066108e+01 8.2718066108e+01 0.0000000000e+00 0.0000e+00 -1.0000e+00
        6  1    1    2  502    0 +8.9397571984e+01 +3.4217781826e+01 +2.1064321974e+02 2.8889850899e+02 1.7300000000e+02 0.0000e+00 -1.0000e+00
       -6  1    1    2    0  501 -8.9397571984e+01 -3.4217781826e+01 +1.8060896186e+02 2.6778980484e+02 1.7300000000e+02 0.0000e+00 -1.0000e+00
<mgrwt>
<rscale>  2 0.19771642E+03</rscale>
<asrwt>0</asrwt>
<pdfrwt beam="2">  1        2 0.12725857E-01 0.19771642E+03</pdfrwt>
<pdfrwt beam="1">  1       -2 0.72918498E-01 0.19771642E+03</pdfrwt>
<totfact> 0.82382742E+02</totfact>
</mgrwt>
<rwgt>
<wgt id='1'> +6.0499031e+02 </wgt>
<wgt id='2'> +5.7076793e+02 </wgt>
<wgt id='3'> +5.0481800e+02 </wgt>
<wgt id='4'> +6.0499031e+02 </wgt>
<wgt id='5'> +5.0464470e+02 </wgt>
<wgt id='6'> +6.1866489e+02 </wgt>
<wgt id='7'> +5.8213053e+02 </wgt>
<wgt id='8'> +5.1215427e+02 </wgt>
<wgt id='9'> +6.1866489e+02 </wgt>
<wgt id='10'> +5.1197085e+02 </wgt>
<wgt id='11'> +6.2765564e+02 </wgt>
<wgt id='12'> +5.8935487e+02 </wgt>
<wgt id='13'> +5.1639948e+02 </wgt>
<wgt id='14'> +6.2765564e+02 </wgt>
<wgt id='15'> +5.1620870e+02 </wgt>
<wgt id='16'> +4.9365982e+02 </wgt>
<wgt id='17'> +4.7118471e+02 </wgt>
<wgt id='18'> +4.2529731e+02 </wgt>
<wgt id='19'> +4.9365983e+02 </wgt>
<wgt id='20'> +4.2516653e+02 </wgt>
<wgt id='21'> +4.8056485e+02 </wgt>
<wgt id='22'> +4.3147795e+02 </wgt>
<wgt id='23'> +5.0481800e+02 </wgt>
<wgt id='24'> +4.3133886e+02 </wgt>
<wgt id='25'> +5.1215427e+02 </wgt>
<wgt id='26'> +4.8652874e+02 </wgt>
<wgt id='27'> +4.3505443e+02 </wgt>
<wgt id='28'> +5.1215427e+02 </wgt>
<wgt id='29'> +4.3490929e+02 </wgt>
<wgt id='30'> +4.1589681e+02 </wgt>
<wgt id='31'> +3.9867911e+02 </wgt>
<wgt id='32'> +3.6314946e+02 </wgt>
<wgt id='33'> +4.1589681e+02 </wgt>
<wgt id='34'> +3.6304736e+02 </wgt>
<wgt id='35'> +4.2529731e+02 </wgt>
<wgt id='36'> +4.0661584e+02 </wgt>
<wgt id='37'> +3.6842694e+02 </wgt>
<wgt id='38'> +4.2529731e+02 </wgt>
<wgt id='39'> +3.6831788e+02 </wgt>
<wgt id='40'> +4.3147795e+02 </wgt>
<wgt id='41'> +4.1166201e+02 </wgt>
<wgt id='42'> +3.7148080e+02 </wgt>
<wgt id='43'> +4.3147795e+02 </wgt>
<wgt id='44'> +3.7136664e+02 </wgt>
<wgt id='45'> +5.0481800e+02 </wgt>
<wgt id='46'> +5.2348148e+02 </wgt>
<wgt id='47'> +4.9583967e+02 </wgt>
<wgt id='48'> +4.7859468e+02 </wgt>
<wgt id='49'> +5.3017546e+02 </wgt>
<wgt id='50'> +4.4835115e+02 </wgt>
<wgt id='51'> +4.8147704e+02 </wgt>
<wgt id='52'> +5.3309096e+02 </wgt>
<wgt id='53'> +5.3096252e+02 </wgt>
<wgt id='54'> +4.8882989e+02 </wgt>
<wgt id='55'> +4.8566185e+02 </wgt>
<wgt id='56'> +5.1919051e+02 </wgt>
<wgt id='57'> +4.4269696e+02 </wgt>
<wgt id='58'> +5.5962864e+02 </wgt>
<wgt id='59'> +5.1725945e+02 </wgt>
<wgt id='60'> +5.0595137e+02 </wgt>
<wgt id='61'> +4.6678877e+02 </wgt>
<wgt id='62'> +5.1689132e+02 </wgt>
<wgt id='63'> +5.4105068e+02 </wgt>
<wgt id='64'> +4.7847235e+02 </wgt>
<wgt id='65'> +4.6338459e+02 </wgt>
<wgt id='66'> +4.9475767e+02 </wgt>
<wgt id='67'> +5.3299382e+02 </wgt>
<wgt id='68'> +4.4697827e+02 </wgt>
<wgt id='69'> +4.7338707e+02 </wgt>
<wgt id='70'> +5.5225332e+02 </wgt>
<wgt id='71'> +4.8361811e+02 </wgt>
<wgt id='72'> +4.6074001e+02 </wgt>
<wgt id='73'> +5.3413537e+02 </wgt>
<wgt id='74'> +4.7029074e+02 </wgt>
<wgt id='75'> +4.7277408e+02 </wgt>
<wgt id='76'> +4.9916841e+02 </wgt>
<wgt id='77'> +5.2399326e+02 </wgt>
<wgt id='78'> +4.8486338e+02 </wgt>
<wgt id='79'> +5.1196973e+02 </wgt>
<wgt id='80'> +4.9307945e+02 </wgt>
<wgt id='81'> +5.2662271e+02 </wgt>
<wgt id='82'> +5.0882487e+02 </wgt>
<wgt id='83'> +4.7942413e+02 </wgt>
<wgt id='84'> +5.3417316e+02 </wgt>
<wgt id='85'> +5.1922789e+02 </wgt>
<wgt id='86'> +5.8004896e+02 </wgt>
<wgt id='87'> +5.1983689e+02 </wgt>
<wgt id='88'> +4.7091797e+02 </wgt>
<wgt id='89'> +6.4186564e+02 </wgt>
<wgt id='90'> +5.7271612e+02 </wgt>
<wgt id='91'> +4.6170381e+02 </wgt>
<wgt id='92'> +5.1110517e+02 </wgt>
<wgt id='93'> +5.0061596e+02 </wgt>
<wgt id='94'> +5.4019882e+02 </wgt>
<wgt id='95'> +4.8476144e+02 </wgt>
<wgt id='96'> +5.0250047e+02 </wgt>
<wgt id='97'> +5.1043843e+02 </wgt>
<wgt id='98'> +5.1522566e+02 </wgt>
<wgt id='99'> +5.4105358e+02 </wgt>
<wgt id='100'> +4.5174028e+02 </wgt>
<wgt id='101'> +4.9500776e+02 </wgt>
<wgt id='102'> +5.0959163e+02 </wgt>
<wgt id='103'> +5.4742557e+02 </wgt>
<wgt id='104'> +4.8990908e+02 </wgt>
<wgt id='105'> +4.9312640e+02 </wgt>
<wgt id='106'> +5.0669677e+02 </wgt>
<wgt id='107'> +5.1142728e+02 </wgt>
<wgt id='108'> +4.8301677e+02 </wgt>
<wgt id='109'> +5.1244312e+02 </wgt>
<wgt id='110'> +5.2529617e+02 </wgt>
<wgt id='111'> +4.8742604e+02 </wgt>
<wgt id='112'> +4.4826495e+02 </wgt>
<wgt id='113'> +5.0163293e+02 </wgt>
<wgt id='114'> +4.9969314e+02 </wgt>
<wgt id='115'> +4.5644215e+02 </wgt>
<wgt id='116'> +5.0444447e+02 </wgt>
<wgt id='117'> +4.7673628e+02 </wgt>
<wgt id='118'> +4.9956340e+02 </wgt>
<wgt id='119'> +5.4093415e+02 </wgt>
<wgt id='120'> +4.9763956e+02 </wgt>
<wgt id='121'> +5.1372125e+02 </wgt>
<wgt id='122'> +5.0905736e+02 </wgt>
<wgt id='123'> +5.2140755e+02 </wgt>
<wgt id='124'> +4.8492828e+02 </wgt>
<wgt id='125'> +4.5729165e+02 </wgt>
<wgt id='126'> +5.2505978e+02 </wgt>
<wgt id='127'> +5.3948318e+02 </wgt>
<wgt id='128'> +5.0728216e+02 </wgt>
<wgt id='129'> +5.0898504e+02 </wgt>
<wgt id='130'> +4.4080282e+02 </wgt>
<wgt id='131'> +5.3158865e+02 </wgt>
<wgt id='132'> +4.9459203e+02 </wgt>
<wgt id='133'> +6.1632260e+02 </wgt>
<wgt id='134'> +4.5310448e+02 </wgt>
<wgt id='135'> +4.6760321e+02 </wgt>
<wgt id='136'> +5.2382122e+02 </wgt>
<wgt id='137'> +5.1617228e+02 </wgt>
<wgt id='138'> +4.9198092e+02 </wgt>
<wgt id='139'> +5.9195266e+02 </wgt>
<wgt id='140'> +4.5325163e+02 </wgt>
<wgt id='141'> +4.9669284e+02 </wgt>
<wgt id='142'> +4.6686916e+02 </wgt>
<wgt id='143'> +5.1614849e+02 </wgt>
<wgt id='144'> +5.1028299e+02 </wgt>
<wgt id='145'> +5.3881706e+02 </wgt>
</rwgt>
</event>
<event>
 4      1 +5.0481800e+02 2.58212400e+02 7.54677100e-03 1.10822200e-01
       21 -1    0    0  501  502 +0.0000000000e+00 +0.0000000000e+00 +2.4227814108e+01 2.4227814108e+01 0.0000000000e+00 0.0000e+00 1.0000e+00
       21 -1    0    0  502  503 -0.0000000000e+00 -0.0000000000e+00 -2.8394304209e+03 2.8394304209e+03 0.0000000000e+00 0.0000e+00 1.0000e+00
        6  1    1    2  501    0 +4.7296956440e-01 +1.9168835105e+02 -1.6589286560e+03 1.6789037892e+03 1.7300000000e+02 0.0000e+00 1.0000e+00
       -6  1    1    2    0  503 -4.7296956440e-01 -1.9168835105e+02 -1.1562739508e+03 1.1847544458e+03 1.7300000000e+02 0.0000e+00 1.0000e+00
<mgrwt>
<rscale>  2 0.25821241E+03</rscale>
<asrwt>0</asrwt>
<pdfrwt beam="1">  1       21 0.37273573E-02 0.25821241E+03</pdfrwt>
<pdfrwt beam="2">  1       21 0.43683530E+00 0.25821241E+03</pdfrwt>
<totfact> 0.20582479E+03</totfact>
</mgrwt>
<rwgt>
<wgt id='1'> +7.4365335e+02 </wgt>
<wgt id='2'> +5.9101521e+02 </wgt>
<wgt id='3'> +5.0481800e+02 </wgt>
<wgt id='4'> +7.4365335e+02 </wgt>
<wgt id='5'> +5.0062555e+02 </wgt>
<wgt id='6'> +6.0985465e+02 </wgt>
<wgt id='7'> +4.8605201e+02 </wgt>
<wgt id='8'> +4.1815212e+02 </wgt>
<wgt id='9'> +6.0985465e+02 </wgt>
<wgt id='10'> +4.1483500e+02 </wgt>
<wgt id='11'> +5.0515634e+02 </wgt>
<wgt id='12'> +4.0642642e+02 </wgt>
<wgt id='13'> +3.5190161e+02 </wgt>
<wgt id='14'> +5.0515634e+02 </wgt>
<wgt id='15'> +3.4922573e+02 </wgt>
<wgt id='16'> +6.1557224e+02 </wgt>
<wgt id='17'> +4.9761895e+02 </wgt>
<wgt id='18'> +4.2758656e+02 </wgt>
<wgt id='19'> +6.1557225e+02 </wgt>
<wgt id='20'> +4.2416699e+02 </wgt>
<wgt id='21'> +4.0924275e+02 </wgt>
<wgt id='22'> +3.5417958e+02 </wgt>
<wgt id='23'> +5.0481800e+02 </wgt>
<wgt id='24'> +3.5147890e+02 </wgt>
<wgt id='25'> +4.1815211e+02 </wgt>
<wgt id='26'> +3.4220014e+02 </wgt>
<wgt id='27'> +2.9806465e+02 </wgt>
<wgt id='28'> +4.1815212e+02 </wgt>
<wgt id='29'> +2.9588987e+02 </wgt>
<wgt id='30'> +5.2139666e+02 </wgt>
<wgt id='31'> +4.2472694e+02 </wgt>
<wgt id='32'> +3.6681356e+02 </wgt>
<wgt id='33'> +5.2139666e+02 </wgt>
<wgt id='34'> +3.6397597e+02 </wgt>
<wgt id='35'> +4.2758656e+02 </wgt>
<wgt id='36'> +3.4929623e+02 </wgt>
<wgt id='37'> +3.0383993e+02 </wgt>
<wgt id='38'> +4.2758656e+02 </wgt>
<wgt id='39'> +3.0160261e+02 </wgt>
<wgt id='40'> +3.5417958e+02 </wgt>
<wgt id='41'> +2.9207412e+02 </wgt>
<wgt id='42'> +2.5570063e+02 </wgt>
<wgt id='43'> +3.5417958e+02 </wgt>
<wgt id='44'> +2.5390189e+02 </wgt>
<wgt id='45'> +5.0481800e+02 </wgt>
<wgt id='46'> +5.0607657e+02 </wgt>
<wgt id='47'> +6.2974742e+02 </wgt>
<wgt id='48'> +4.6248309e+02 </wgt>
<wgt id='49'> +4.0176055e+02 </wgt>
<wgt id='50'> +7.2609920e+02 </wgt>
<wgt id='51'> +5.6514372e+02 </wgt>
<wgt id='52'> +3.8678178e+02 </wgt>
<wgt id='53'> +6.1922706e+02 </wgt>
<wgt id='54'> +5.1772978e+02 </wgt>
<wgt id='55'> +6.4619358e+02 </wgt>
<wgt id='56'> +4.7097190e+02 </wgt>
<wgt id='57'> +6.2030357e+02 </wgt>
<wgt id='58'> +4.0157334e+02 </wgt>
<wgt id='59'> +5.8979500e+02 </wgt>
<wgt id='60'> +5.1383509e+02 </wgt>
<wgt id='61'> +3.8374237e+02 </wgt>
<wgt id='62'> +4.2217603e+02 </wgt>
<wgt id='63'> +5.5306427e+02 </wgt>
<wgt id='64'> +5.0393814e+02 </wgt>
<wgt id='65'> +3.6067825e+02 </wgt>
<wgt id='66'> +4.8594552e+02 </wgt>
<wgt id='67'> +4.7331546e+02 </wgt>
<wgt id='68'> +8.4590065e+02 </wgt>
<wgt id='69'> +6.0480914e+02 </wgt>
<wgt id='70'> +7.8429667e+02 </wgt>
<wgt id='71'> +4.4030868e+02 </wgt>
<wgt id='72'> +3.8639374e+02 </wgt>
<wgt id='73'> +3.6925329e+02 </wgt>
<wgt id='74'> +7.7764531e+02 </wgt>
<wgt id='75'> +6.0034330e+02 </wgt>
<wgt id='76'> +4.4599641e+02 </wgt>
<wgt id='77'> +3.9500050e+02 </wgt>
<wgt id='78'> +4.2814942e+02 </wgt>
<wgt id='79'> +5.3965843e+02 </wgt>
<wgt id='80'> +2.6540893e+02 </wgt>
<wgt id='81'> +5.6728442e+02 </wgt>
<wgt id='82'> +4.5213785e+02 </wgt>
<wgt id='83'> +5.1608434e+02 </wgt>
<wgt id='84'> +3.6150665e+02 </wgt>
<wgt id='85'> +4.3657493e+02 </wgt>
<wgt id='86'> +4.6644532e+02 </wgt>
<wgt id='87'> +4.3185538e+02 </wgt>
<wgt id='88'> +5.7009220e+02 </wgt>
<wgt id='89'> +2.5881853e+02 </wgt>
<wgt id='90'> +3.8786391e+02 </wgt>
<wgt id='91'> +3.4466369e+02 </wgt>
<wgt id='92'> +4.2876910e+02 </wgt>
<wgt id='93'> +5.6654377e+02 </wgt>
<wgt id='94'> +3.3857619e+02 </wgt>
<wgt id='95'> +5.3699587e+02 </wgt>
<wgt id='96'> +4.0712968e+02 </wgt>
<wgt id='97'> +4.0915574e+02 </wgt>
<wgt id='98'> +6.7543285e+02 </wgt>
<wgt id='99'> +3.6630314e+02 </wgt>
<wgt id='100'> +3.0125232e+02 </wgt>
<wgt id='101'> +7.1580350e+02 </wgt>
<wgt id='102'> +6.8209653e+02 </wgt>
<wgt id='103'> +4.2535907e+02 </wgt>
<wgt id='104'> +5.4927006e+02 </wgt>
<wgt id='105'> +5.6064503e+02 </wgt>
<wgt id='106'> +4.8688079e+02 </wgt>
<wgt id='107'> +5.3315970e+02 </wgt>
<wgt id='108'> +4.6101066e+02 </wgt>
<wgt id='109'> +5.5906152e+02 </wgt>
<wgt id='110'> +2.8994979e+02 </wgt>
<wgt id='111'> +4.6999240e+02 </wgt>
<wgt id='112'> +5.2870092e+02 </wgt>
<wgt id='113'> +6.5160896e+02 </wgt>
<wgt id='114'> +3.1051318e+02 </wgt>
<wgt id='115'> +4.5623424e+02 </wgt>
<wgt id='116'> +6.4031926e+02 </wgt>
<wgt id='117'> +5.6531539e+02 </wgt>
<wgt id='118'> +5.2769325e+02 </wgt>
<wgt id='119'> +5.1740319e+02 </wgt>
<wgt id='120'> +4.2673267e+02 </wgt>
<wgt id='121'> +4.5995993e+02 </wgt>
<wgt id='122'> +4.1535846e+02 </wgt>
<wgt id='123'> +4.2435923e+02 </wgt>
<wgt id='124'> +6.0326990e+02 </wgt>
<wgt id='125'> +9.1108793e+02 </wgt>
<wgt id='126'> +4.8576515e+02 </wgt>
<wgt id='127'> +4.7477404e+02 </wgt>
<wgt id='128'> +5.1056795e+02 </wgt>
<wgt id='129'> +4.7964646e+02 </wgt>
<wgt id='130'> +4.2376065e+02 </wgt>
<wgt id='131'> +3.8904183e+02 </wgt>
<wgt id='132'> +5.3871440e+02 </wgt>
<wgt id='133'> +5.1569084e+02 </wgt>
<wgt id='134'> +6.5624253e+02 </wgt>
<wgt id='135'> +4.7942542e+02 </wgt>
<wgt id='136'> +6.9138799e+02 </wgt>
<wgt id='137'> +5.6830791e+02 </wgt>
<wgt id='138'> +6.4381115e+02 </wgt>
<wgt id='139'> +5.5488105e+02 </wgt>
<wgt id='140'> +4.6094354e+02 </wgt>
<wgt id='141'> +7.7668770e+02 </wgt>
<wgt id='142'> +2.2130485e+02 </wgt>
<wgt id='143'> +5.6906383e+02 </wgt>
<wgt id='144'> +4.2199566e+02 </wgt>
<wgt id='145'> +3.9693602e+02 </wgt>
</rwgt>
</event>
<event>
 4      1 +5.0481800e+02 1.97539700e+02 7.54677100e-03 1.15183100e-01
       21 -1    0    0  503  502 +0.0000000000e+00 +0.0000000000e+00 +7.5729185059e+02 7.5729185059e+02 0.0000000000e+00 0.0000e+00 -1.0000e+00
       21 -1    0    0  501  503 -0.0000000000e+00 -0.0000000000e+00 -1.3762297484e+02 1.3762297484e+02 0.0000000000e+00 0.0000e+00 -1.0000e+00
        6  1    1    2  501    0 +9.2715054438e+01 -2.2290540854e+01 -4.4076856072e+01 2.0239742778e+02 1.7300000000e+02 0.0000e+00 -1.0000e+00
       -6  1    1    2    0  502 -9.2715054438e+01 +2.2290540854e+01 +6.6374573182e+02 6.9251739764e+02 1.7300000000e+02 0.0000e+00 -1.0000e+00
<mgrwt>
<rscale>  2 0.19753974E+03</rscale>
<asrwt>0</asrwt>
<pdfrwt beam="1">  1       21 0.11650644E+00 0.19753974E+03</pdfrwt>
<pdfrwt beam="2">  1       21 0.21172766E-01 0.19753974E+03</pdfrwt>
<totfact> 0.11742297E+04</totfact>
</mgrwt>
<rwgt>
<wgt id='1'> +6.7234946e+02 </wgt>
<wgt id='2'> +5.7869546e+02 </wgt>
<wgt id='3'> +5.0481800e+02 </wgt>
<wgt id='4'> +6.7234945e+02 </wgt>
<wgt id='5'> +4.1671224e+02 </wgt>
<wgt id='6'> +6.1869369e+02 </wgt>
<wgt id='7'> +5.2770194e+02 </wgt>
<wgt id='8'> +4.5824907e+02 </wgt>
<wgt id='9'> +6.1869369e+02 </wgt>
<wgt id='10'> +3.7896646e+02 </wgt>
<wgt id='11'> +5.6161984e+02 </wgt>
<wgt id='12'> +4.7966125e+02 </wgt>
<wgt id='13'> +4.1707040e+02 </wgt>
<wgt id='14'> +5.6161984e+02 </wgt>
<wgt id='15'> +3.4561962e+02 </wgt>
<wgt id='16'> +5.4859798e+02 </wgt>
<wgt id='17'> +4.8121459e+02 </wgt>
<wgt id='18'> +4.2528791e+02 </wgt>
<wgt id='19'> +5.4859798e+02 </wgt>
<wgt id='20'> +3.5449040e+02 </wgt>
<wgt id='21'> +4.3881090e+02 </wgt>
<wgt id='22'> +3.8605555e+02 </wgt>
<wgt id='23'> +5.0481800e+02 </wgt>
<wgt id='24'> +3.2238066e+02 </wgt>
<wgt id='25'> +4.5824907e+02 </wgt>
<wgt id='26'> +3.9886263e+02 </wgt>
<wgt id='27'> +3.5136425e+02 </wgt>
<wgt id='28'> +4.5824907e+02 </wgt>
<wgt id='29'> +2.9401304e+02 </wgt>
<wgt id='30'> +4.6217070e+02 </wgt>
<wgt id='31'> +4.0830933e+02 </wgt>
<wgt id='32'> +3.6313557e+02 </wgt>
<wgt id='33'> +4.6217070e+02 </wgt>
<wgt id='34'> +3.0523209e+02 </wgt>
<wgt id='35'> +4.2528791e+02 </wgt>
<wgt id='36'> +3.7232991e+02 </wgt>
<wgt id='37'> +3.2963670e+02 </wgt>
<wgt id='38'> +4.2528791e+02 </wgt>
<wgt id='39'> +2.7758417e+02 </wgt>
<wgt id='40'> +3.8605555e+02 </wgt>
<wgt id='41'> +3.3843390e+02 </wgt>
<wgt id='42'> +3.0001525e+02 </wgt>
<wgt id='43'> +3.8605555e+02 </wgt>
<wgt id='44'> +2.5315838e+02 </wgt>
<wgt id='45'> +5.0481800e+02 </wgt>
<wgt id='46'> +5.1936842e+02 </wgt>
<wgt id='47'> +5.2329610e+02 </wgt>
<wgt id='48'> +5.0967595e+02 </wgt>
<wgt id='49'> +4.9154772e+02 </wgt>
<wgt id='50'> +6.1607185e+02 </wgt>
<wgt id='51'> +4.8893993e+02 </wgt>
<wgt id='52'> +5.0043188e+02 </wgt>
<wgt id='53'> +4.9800859e+02 </wgt>
<wgt id='54'> +5.1749050e+02 </wgt>
<wgt id='55'> +4.8490488e+02 </wgt>
<wgt id='56'> +4.5831734e+02 </wgt>
<wgt id='57'> +5.1048033e+02 </wgt>
<wgt id='58'> +4.8519432e+02 </wgt>
<wgt id='59'> +5.2944943e+02 </wgt>
<wgt id='60'> +5.0362858e+02 </wgt>
<wgt id='61'> +4.3652180e+02 </wgt>
<wgt id='62'> +4.9130196e+02 </wgt>
<wgt id='63'> +5.1045832e+02 </wgt>
<wgt id='64'> +4.9466957e+02 </wgt>
<wgt id='65'> +5.5532675e+02 </wgt>
<wgt id='66'> +4.9785569e+02 </wgt>
<wgt id='67'> +5.0754320e+02 </wgt>
<wgt id='68'> +5.6785047e+02 </wgt>
<wgt id='69'> +5.1366382e+02 </wgt>
<wgt id='70'> +5.0161020e+02 </wgt>
<wgt id='71'> +5.0456146e+02 </wgt>
<wgt id='72'> +4.7601691e+02 </wgt>
<wgt id='73'> +4.8114043e+02 </wgt>
<wgt id='74'> +5.4336516e+02 </wgt>
<wgt id='75'> +5.2144520e+02 </wgt>
<wgt id='76'> +4.9994483e+02 </wgt>
<wgt id='77'> +4.9330422e+02 </wgt>
<wgt id='78'> +4.7300934e+02 </wgt>
<wgt id='79'> +5.0408940e+02 </wgt>
<wgt id='80'> +4.8351102e+02 </wgt>
<wgt id='81'> +4.9640389e+02 </wgt>
<wgt id='82'> +4.9343854e+02 </wgt>
<wgt id='83'> +5.1179583e+02 </wgt>
<wgt id='84'> +5.4079713e+02 </wgt>
<wgt id='85'> +5.0759625e+02 </wgt>
<wgt id='86'> +5.1216586e+02 </wgt>
<wgt id='87'> +5.0810617e+02 </wgt>
<wgt id='88'> +5.0688494e+02 </wgt>
<wgt id='89'> +5.0212282e+02 </wgt>
<wgt id='90'> +5.0976824e+02 </wgt>
<wgt id='91'> +5.0693078e+02 </wgt>
<wgt id='92'> +4.5405468e+02 </wgt>
<wgt id='93'> +5.0433958e+02 </wgt>
<wgt id='94'> +4.8370404e+02 </wgt>
<wgt id='95'> +5.0168448e+02 </wgt>
<wgt id='96'> +5.4496628e+02 </wgt>
<wgt id='97'> +4.9207454e+02 </wgt>
<wgt id='98'> +4.9967952e+02 </wgt>
<wgt id='99'> +4.6809088e+02 </wgt>
<wgt id='100'> +4.5214358e+02 </wgt>
<wgt id='101'> +5.6939656e+02 </wgt>
<wgt id='102'> +5.3096361e+02 </wgt>
<wgt id='103'> +5.3951376e+02 </wgt>
<wgt id='104'> +5.1625849e+02 </wgt>
<wgt id='105'> +5.1931531e+02 </wgt>
<wgt id='106'> +4.5738536e+02 </wgt>
<wgt id='107'> +4.7581547e+02 </wgt>
<wgt id='108'> +4.4251030e+02 </wgt>
<wgt id='109'> +4.7507225e+02 </wgt>
<wgt id='110'> +4.9379868e+02 </wgt>
<wgt id='111'> +4.8958964e+02 </wgt>
<wgt id='112'> +4.8238307e+02 </wgt>
<wgt id='113'> +4.7121879e+02 </wgt>
<wgt id='114'> +4.9577419e+02 </wgt>
<wgt id='115'> +4.7421031e+02 </wgt>
<wgt id='116'> +5.3182636e+02 </wgt>
<wgt id='117'> +4.9764227e+02 </wgt>
<wgt id='118'> +5.3337457e+02 </wgt>
<wgt id='119'> +4.9878644e+02 </wgt>
<wgt id='120'> +4.9594829e+02 </wgt>
<wgt id='121'> +4.9458874e+02 </wgt>
<wgt id='122'> +4.9791173e+02 </wgt>
<wgt id='123'> +5.0720265e+02 </wgt>
<wgt id='124'> +5.6779916e+02 </wgt>
<wgt id='125'> +5.7934406e+02 </wgt>
<wgt id='126'> +5.1951592e+02 </wgt>
<wgt id='127'> +5.1526343e+02 </wgt>
<wgt id='128'> +4.5920789e+02 </wgt>
<wgt id='129'> +5.6324260e+02 </wgt>
<wgt id='130'> +4.9951721e+02 </wgt>
<wgt id='131'> +5.1847825e+02 </wgt>
<wgt id='132'> +5.3527364e+02 </wgt>
<wgt id='133'> +5.2662002e+02 </wgt>
<wgt id='134'> +4.9476844e+02 </wgt>
<wgt id='135'> +5.0785144e+02 </wgt>
<wgt id='136'> +5.3306244e+02 </wgt>
<wgt id='137'> +4.8946647e+02 </wgt>
<wgt id='138'> +4.8317127e+02 </wgt>
<wgt id='139'> +5.2182406e+02 </wgt>
<wgt id='140'> +5.1522497e+02 </wgt>
<wgt id='141'> +5.2240717e+02 </wgt>
<wgt id='142'> +4.5623770e+02 </wgt>
<wgt id='143'> +5.1576468e+02 </wgt>
<wgt id='144'> +4.8594530e+02 </wgt>
<wgt id='145'> +4.9535256e+02 </wgt>
</rwgt>
</event>
<event>
 4      1 +5.0481800e+02 3.75466000e+02 7.54677100e-03 1.05262200e-01
       21 -1    0    0  503  502 +0.0000000000e+00 +0.0000000000e+00 +5.8044148389e+01 5.8044148389e+01 0.0000000000e+00 0.0000e+00 -1.0000e+00
       21 -1    0    0  501  503 -0.0000000000e+00 -0.0000000000e+00 -2.4352512696e+03 2.4352512696e+03 0.0000000000e+00 0.0000e+00 1.0000e+00
        6  1    1    2  501    0 -2.0693207182e+02 -2.6119881889e+02 -1.1241892315e+03 1.1852325230e+03 1.7300000000e+02 0.0000e+00 -1.0000e+00
       -6  1    1    2    0  502 +2.0693207182e+02 +2.6119881889e+02 -1.2530178898e+03 1.3080628951e+03 1.7300000000e+02 0.0000e+00 1.0000e+00
<mgrwt>
<rscale>  2 0.37546598E+03</rscale>
<asrwt>0</asrwt>
<pdfrwt beam="1">  1       21 0.89298694E-02 0.37546598E+03</pdfrwt>
<pdfrwt beam="2">  1       21 0.37465403E+00 0.37546598E+03</pdfrwt>
<totfact> 0.10227686E+03</totfact>
</mgrwt>
<rwgt>
<wgt id='1'> +7.2961799e+02 </wgt>
<wgt id='2'> +5.3400495e+02 </wgt>
<wgt id='3'> +5.0481800e+02 </wgt>
<wgt id='4'> +7.2961799e+02 </wgt>
<wgt id='5'> +5.0447423e+02 </wgt>
<wgt id='6'> +6.0005855e+02 </wgt>
<wgt id='7'> +4.4465059e+02 </wgt>
<wgt id='8'> +4.2129052e+02 </wgt>
<wgt id='9'> +6.0005855e+02 </wgt>
<wgt id='10'> +4.2101499e+02 </wgt>
<wgt id='11'> +5.0077252e+02 </wgt>
<wgt id='12'> +3.7532586e+02 </wgt>
<wgt id='13'> +3.5633445e+02 </wgt>
<wgt id='14'> +5.0077252e+02 </wgt>
<wgt id='15'> +3.5611007e+02 </wgt>
<wgt id='16'> +6.1381393e+02 </wgt>
<wgt id='17'> +4.5462505e+02 </wgt>
<wgt id='18'> +4.3064555e+02 </wgt>
<wgt id='19'> +6.1381392e+02 </wgt>
<wgt id='20'> +4.3036274e+02 </wgt>
<wgt id='21'> +3.7855323e+02 </wgt>
<wgt id='22'> +3.5939069e+02 </wgt>
<wgt id='23'> +5.0481800e+02 </wgt>
<wgt id='24'> +3.5916436e+02 </wgt>
<wgt id='25'> +4.2129053e+02 </wgt>
<wgt id='26'> +3.1953362e+02 </wgt>
<wgt id='27'> +3.0397855e+02 </wgt>
<wgt id='28'> +4.2129052e+02 </wgt>
<wgt id='29'> +3.0379452e+02 </wgt>
<wgt id='30'> +5.2362680e+02 </wgt>
<wgt id='31'> +3.9171312e+02 </wgt>
<wgt id='32'> +3.7169740e+02 </wgt>
<wgt id='33'> +5.2362680e+02 </wgt>
<wgt id='34'> +3.7146105e+02 </wgt>
<wgt id='35'> +4.3064555e+02 </wgt>
<wgt id='36'> +3.2616827e+02 </wgt>
<wgt id='37'> +3.1019614e+02 </wgt>
<wgt id='38'> +4.3064555e+02 </wgt>
<wgt id='39'> +3.1000725e+02 </wgt>
<wgt id='40'> +3.5939069e+02 </wgt>
<wgt id='41'> +2.7531592e+02 </wgt>
<wgt id='42'> +2.6236899e+02 </wgt>
<wgt id='43'> +3.5939069e+02 </wgt>
<wgt id='44'> +2.6221562e+02 </wgt>
<wgt id='45'> +5.0481800e+02 </wgt>
<wgt id='46'> +5.0788348e+02 </wgt>
<wgt id='47'> +6.3579324e+02 </wgt>
<wgt id='48'> +4.9747729e+02 </wgt>
<wgt id='49'> +4.2829474e+02 </wgt>
<wgt id='50'> +6.6525832e+02 </wgt>
<wgt id='51'> +5.1449973e+02 </wgt>
<wgt id='52'> +3.9102024e+02 </wgt>
<wgt id='53'> +5.9895950e+02 </wgt>
<wgt id='54'> +5.2490696e+02 </wgt>
<wgt id='55'> +6.3391512e+02 </wgt>
<wgt id='56'> +4.7759409e+02 </wgt>
<wgt id='57'> +5.7513564e+02 </wgt>
<wgt id='58'> +4.0552029e+02 </wgt>
<wgt id='59'> +5.5856349e+02 </wgt>
<wgt id='60'> +4.8576724e+02 </wgt>
<wgt id='61'> +3.7867982e+02 </wgt>
<wgt id='62'> +4.2383740e+02 </wgt>
<wgt id='63'> +5.3727295e+02 </wgt>
<wgt id='64'> +5.0353675e+02 </wgt>
<wgt id='65'> +3.7546895e+02 </wgt>
<wgt id='66'> +5.0819426e+02 </wgt>
<wgt id='67'> +4.7610209e+02 </wgt>
<wgt id='68'> +8.3336222e+02 </wgt>
<wgt id='69'> +6.0987899e+02 </wgt>
<wgt id='70'> +7.4447061e+02 </wgt>
<wgt id='71'> +4.3048681e+02 </wgt>
<wgt id='72'> +3.8953734e+02 </wgt>
<wgt id='73'> +4.0398462e+02 </wgt>
<wgt id='74'> +7.3205176e+02 </wgt>
<wgt id='75'> +6.5552046e+02 </wgt>
<wgt id='76'> +4.8391770e+02 </wgt>
<wgt id='77'> +4.0924342e+02 </wgt>
<wgt id='78'> +4.1230996e+02 </wgt>
<wgt id='79'> +5.6934938e+02 </wgt>
<wgt id='80'> +3.2950599e+02 </wgt>
<wgt id='81'> +5.6304092e+02 </wgt>
<wgt id='82'> +4.7657817e+02 </wgt>
<wgt id='83'> +5.1210720e+02 </wgt>
<wgt id='84'> +4.0016511e+02 </wgt>
<wgt id='85'> +4.2143364e+02 </wgt>
<wgt id='86'> +5.3617171e+02 </wgt>
<wgt id='87'> +4.5160461e+02 </wgt>
<wgt id='88'> +5.7368813e+02 </wgt>
<wgt id='89'> +2.7858526e+02 </wgt>
<wgt id='90'> +3.8994590e+02 </wgt>
<wgt id='91'> +3.5775069e+02 </wgt>
<wgt id='92'> +4.5414731e+02 </wgt>
<wgt id='93'> +5.5398950e+02 </wgt>
<wgt id='94'> +3.9190419e+02 </wgt>
<wgt id='95'> +5.1917048e+02 </wgt>
<wgt id='96'> +4.5806360e+02 </wgt>
<wgt id='97'> +4.1329316e+02 </wgt>
<wgt id='98'> +6.6047271e+02 </wgt>
<wgt id='99'> +3.6613627e+02 </wgt>
<wgt id='100'> +3.0604674e+02 </wgt>
<wgt id='101'> +6.5901785e+02 </wgt>
<wgt id='102'> +6.3546311e+02 </wgt>
<wgt id='103'> +4.1849812e+02 </wgt>
<wgt id='104'> +5.7097799e+02 </wgt>
<wgt id='105'> +5.3220887e+02 </wgt>
<wgt id='106'> +5.1009074e+02 </wgt>
<wgt id='107'> +5.3601084e+02 </wgt>
<wgt id='108'> +4.5065447e+02 </wgt>
<wgt id='109'> +5.2232344e+02 </wgt>
<wgt id='110'> +3.4439264e+02 </wgt>
<wgt id='111'> +4.6565135e+02 </wgt>
<wgt id='112'> +5.1317074e+02 </wgt>
<wgt id='113'> +6.4540645e+02 </wgt>
<wgt id='114'> +3.7904493e+02 </wgt>
<wgt id='115'> +4.9075628e+02 </wgt>
<wgt id='116'> +6.1082617e+02 </wgt>
<wgt id='117'> +5.4425481e+02 </wgt>
<wgt id='118'> +5.0745550e+02 </wgt>
<wgt id='119'> +5.1863074e+02 </wgt>
<wgt id='120'> +4.6503727e+02 </wgt>
<wgt id='121'> +4.4788848e+02 </wgt>
<wgt id='122'> +4.4730968e+02 </wgt>
<wgt id='123'> +4.3243877e+02 </wgt>
<wgt id='124'> +5.7907409e+02 </wgt>
<wgt id='125'> +8.2321183e+02 </wgt>
<wgt id='126'> +4.7596966e+02 </wgt>
<wgt id='127'> +4.5759254e+02 </wgt>
<wgt id='128'> +5.0490381e+02 </wgt>
<wgt id='129'> +4.7338324e+02 </wgt>
<wgt id='130'> +4.4997872e+02 </wgt>
<wgt id='131'> +4.1900872e+02 </wgt>
<wgt id='132'> +5.2903405e+02 </wgt>
<wgt id='133'> +5.4786376e+02 </wgt>
<wgt id='134'> +6.0664553e+02 </wgt>
<wgt id='135'> +4.7718221e+02 </wgt>
<wgt id='136'> +6.4746589e+02 </wgt>
<wgt id='137'> +6.0245841e+02 </wgt>
<wgt id='138'> +6.1160942e+02 </wgt>
<wgt id='139'> +5.4350989e+02 </wgt>
<wgt id='140'> +4.7123899e+02 </wgt>
<wgt id='141'> +7.3679806e+02 </wgt>
<wgt id='142'> +2.2324053e+02 </wgt>
<wgt id='143'> +5.2935270e+02 </wgt>
<wgt id='144'> +4.2204101e+02 </wgt>
<wgt id='145'> +4.2794705e+02 </wgt>
</rwgt>
</event>
<event>
 4      1 +5.0481800e+02 4.01073700e+02 7.54677100e-03 1.04340900e-01
       21 -1    0    0  503  502 +0.0000000000e+00 +0.0000000000e+00 +4.4483022241e+02 4.4483022241e+02 0.0000000000e+00 0.0000e+00 -1.0000e+00
       21 -1    0    0  501  503 -0.0000000000e+00 -0.0000000000e+00 -6.4812212162e+02 6.4812212162e+02 0.0000000000e+00 0.0000e+00 -1.0000e+00
        6  1    1    2  501    0 -2.9447374288e+02 -2.1027684985e+02 -4.6497962238e+02 6.1405715374e+02 1.7300000000e+02 0.0000e+00 -1.0000e+00
       -6  1    1    2    0  502 +2.9447374288e+02 +2.1027684985e+02 +2.6168772317e+02 4.7889519029e+02 1.7300000000e+02 0.0000e+00 -1.0000e+00
<mgrwt>
<rscale>  2 0.40107373E+03</rscale>
<asrwt>0</asrwt>
<pdfrwt beam="1">  1       21 0.68435419E-01 0.40107373E+03</pdfrwt>
<pdfrwt beam="2">  1       21 0.99711096E-01 0.40107373E+03</pdfrwt>
<totfact> 0.14064701E+03</totfact>
</mgrwt>
<rwgt>
<wgt id='1'> +6.8055363e+02 </wgt>
<wgt id='2'> +5.1486177e+02 </wgt>
<wgt id='3'> +5.0481800e+02 </wgt>
<wgt id='4'> +6.8055363e+02 </wgt>
<wgt id='5'> +4.4780873e+02 </wgt>
<wgt id='6'> +5.9900467e+02 </wgt>
<wgt id='7'> +4.5568160e+02 </wgt>
<wgt id='8'> +4.4696636e+02 </wgt>
<wgt id='9'> +5.9900467e+02 </wgt>
<wgt id='10'> +3.9743633e+02 </wgt>
<wgt id='11'> +5.3035932e+02 </wgt>
<wgt id='12'> +4.0557299e+02 </wgt>
<wgt id='13'> +3.9796404e+02 </wgt>
<wgt id='14'> +5.3035932e+02 </wgt>
<wgt id='15'> +3.5467097e+02 </wgt>
<wgt id='16'> +5.7354432e+02 </wgt>
<wgt id='17'> +4.3936334e+02 </wgt>
<wgt id='18'> +4.3116020e+02 </wgt>
<wgt id='19'> +5.7354432e+02 </wgt>
<wgt id='20'> +3.8441305e+02 </wgt>
<wgt id='21'> +3.8886125e+02 </wgt>
<wgt id='22'> +3.8174967e+02 </wgt>
<wgt id='23'> +5.0481800e+02 </wgt>
<wgt id='24'> +3.4117180e+02 </wgt>
<wgt id='25'> +4.4696636e+02 </wgt>
<wgt id='26'> +3.4610047e+02 </wgt>
<wgt id='27'> +3.3989726e+02 </wgt>
<wgt id='28'> +4.4696636e+02 </wgt>
<wgt id='29'> +3.0446068e+02 </wgt>
<wgt id='30'> +4.8985869e+02 </wgt>
<wgt id='31'> +3.7933252e+02 </wgt>
<wgt id='32'> +3.7252139e+02 </wgt>
<wgt id='33'> +4.8985869e+02 </wgt>
<wgt id='34'> +3.3358628e+02 </wgt>
<wgt id='35'> +4.3116020e+02 </wgt>
<wgt id='36'> +3.3573060e+02 </wgt>
<wgt id='37'> +3.2983081e+02 </wgt>
<wgt id='38'> +4.3116020e+02 </wgt>
<wgt id='39'> +2.9606236e+02 </wgt>
<wgt id='40'> +3.8174967e+02 </wgt>
<wgt id='41'> +2.9881229e+02 </wgt>
<wgt id='42'> +2.9367043e+02 </wgt>
<wgt id='43'> +3.8174967e+02 </wgt>
<wgt id='44'> +2.6420515e+02 </wgt>
<wgt id='45'> +5.0481800e+02 </wgt>
<wgt id='46'> +5.3237494e+02 </wgt>
<wgt id='47'> +5.3144836e+02 </wgt>
<wgt id='48'> +5.1848217e+02 </wgt>
<wgt id='49'> +4.9086884e+02 </wgt>
<wgt id='50'> +6.5041576e+02 </wgt>
<wgt id='51'> +4.9026858e+02 </wgt>
<wgt id='52'> +5.0292591e+02 </wgt>
<wgt id='53'> +4.8833533e+02 </wgt>
<wgt id='54'> +5.1666199e+02 </wgt>
<wgt id='55'> +4.8436853e+02 </wgt>
<wgt id='56'> +4.4598638e+02 </wgt>
<wgt id='57'> +5.1013494e+02 </wgt>
<wgt id='58'> +4.7361473e+02 </wgt>
<wgt id='59'> +5.4417989e+02 </wgt>
<wgt id='60'> +5.1734370e+02 </wgt>
<wgt id='61'> +4.1244590e+02 </wgt>
<wgt id='62'> +4.9438395e+02 </wgt>
<wgt id='63'> +5.0959837e+02 </wgt>
<wgt id='64'> +4.8198435e+02 </wgt>
<wgt id='65'> +5.5093681e+02 </wgt>
<wgt id='66'> +5.0210402e+02 </wgt>
<wgt id='67'> +5.0742424e+02 </wgt>
<wgt id='68'> +5.8367081e+02 </wgt>
<wgt id='69'> +5.3214272e+02 </wgt>
<wgt id='70'> +5.0026454e+02 </wgt>
<wgt id='71'> +5.0451928e+02 </wgt>
<wgt id='72'> +4.5397747e+02 </wgt>
<wgt id='73'> +4.7544902e+02 </wgt>
<wgt id='74'> +5.5767062e+02 </wgt>
<wgt id='75'> +5.2480566e+02 </wgt>
<wgt id='76'> +4.9693281e+02 </wgt>
<wgt id='77'> +5.0203187e+02 </wgt>
<wgt id='78'> +4.5989054e+02 </wgt>
<wgt id='79'> +5.1376410e+02 </wgt>
<wgt id='80'> +4.7925102e+02 </wgt>
<wgt id='81'> +4.9188282e+02 </wgt>
<wgt id='82'> +4.8611302e+02 </wgt>
<wgt id='83'> +5.1886998e+02 </wgt>
<wgt id='84'> +5.4642174e+02 </wgt>
<wgt id='85'> +5.0638179e+02 </wgt>
<wgt id='86'> +5.2098887e+02 </wgt>
<wgt id='87'> +5.1249378e+02 </wgt>
<wgt id='88'> +5.1160808e+02 </wgt>
<wgt id='89'> +5.0726153e+02 </wgt>
<wgt id='90'> +5.1450177e+02 </wgt>
<wgt id='91'> +5.0333572e+02 </wgt>
<wgt id='92'> +4.3331843e+02 </wgt>
<wgt id='93'> +5.1222663e+02 </wgt>
<wgt id='94'> +4.7492157e+02 </wgt>
<wgt id='95'> +4.9559695e+02 </wgt>
<wgt id='96'> +5.6052410e+02 </wgt>
<wgt id='97'> +4.8461541e+02 </wgt>
<wgt id='98'> +5.0478371e+02 </wgt>
<wgt id='99'> +4.6353044e+02 </wgt>
<wgt id='100'> +4.3401077e+02 </wgt>
<wgt id='101'> +5.9751387e+02 </wgt>
<wgt id='102'> +5.5633524e+02 </wgt>
<wgt id='103'> +5.4806888e+02 </wgt>
<wgt id='104'> +5.2463818e+02 </wgt>
<wgt id='105'> +5.0916158e+02 </wgt>
<wgt id='106'> +4.3846697e+02 </wgt>
<wgt id='107'> +4.5568852e+02 </wgt>
<wgt id='108'> +4.2488337e+02 </wgt>
<wgt id='109'> +4.6285602e+02 </wgt>
<wgt id='110'> +4.8869239e+02 </wgt>
<wgt id='111'> +4.8235257e+02 </wgt>
<wgt id='112'> +4.6965055e+02 </wgt>
<wgt id='113'> +4.6265028e+02 </wgt>
<wgt id='114'> +4.7303399e+02 </wgt>
<wgt id='115'> +4.5397312e+02 </wgt>
<wgt id='116'> +5.5296898e+02 </wgt>
<wgt id='117'> +4.8952533e+02 </wgt>
<wgt id='118'> +5.5056006e+02 </wgt>
<wgt id='119'> +4.9158889e+02 </wgt>
<wgt id='120'> +4.8057524e+02 </wgt>
<wgt id='121'> +4.8722883e+02 </wgt>
<wgt id='122'> +4.9544837e+02 </wgt>
<wgt id='123'> +5.1201745e+02 </wgt>
<wgt id='124'> +5.8969134e+02 </wgt>
<wgt id='125'> +5.9943317e+02 </wgt>
<wgt id='126'> +5.2700497e+02 </wgt>
<wgt id='127'> +5.2110121e+02 </wgt>
<wgt id='128'> +4.4960730e+02 </wgt>
<wgt id='129'> +5.6693488e+02 </wgt>
<wgt id='130'> +5.0461162e+02 </wgt>
<wgt id='131'> +5.1594637e+02 </wgt>
<wgt id='132'> +5.5008670e+02 </wgt>
<wgt id='133'> +5.4131118e+02 </wgt>
<wgt id='134'> +4.9984499e+02 </wgt>
<wgt id='135'> +5.0707885e+02 </wgt>
<wgt id='136'> +5.4536970e+02 </wgt>
<wgt id='137'> +4.9803907e+02 </wgt>
<wgt id='138'> +5.0413293e+02 </wgt>
<wgt id='139'> +5.2850537e+02 </wgt>
<wgt id='140'> +5.0555930e+02 </wgt>
<wgt id='141'> +5.2750439e+02 </wgt>
<wgt id='142'> +4.4124319e+02 </wgt>
<wgt id='143'> +5.2411998e+02 </wgt>
<wgt id='144'> +4.7654332e+02 </wgt>
<wgt id='145'> +4.9723269e+02 </wgt>
</rwgt>
</event>
<event>
 4      1 +5.0481800e+02 3.24225400e+02 7.54677100e-03 1.07372100e-01
       21 -1    0    0  501  502 +0.0000000000e+00 +0.0000000000e+00 +2.3570883039e+03 2.3570883039e+03 0.0000000000e+00 0.0000e+00 -1.0000e+00
       21 -1    0    0  502  503 -0.0000000000e+00 -0.0000000000e+00 -4.4660031758e+01 4.4660031758e+01 0.0000000000e+00 0.0000e+00 1.0000e+00
        6  1    1    2  501    0 +2.3845439187e+02 -1.3539806004e+02 +1.1115671883e+03 1.1578876222e+03 1.7300000000e+02 0.0000e+00 -1.0000e+00
       -6  1    1    2    0  503 -2.3845439187e+02 +1.3539806004e+02 +1.2008610839e+03 1.2438607134e+03 1.7300000000e+02 0.0000e+00 -1.0000e+00
<mgrwt>
<rscale>  2 0.32422543E+03</rscale>
<asrwt>0</asrwt>
<pdfrwt beam="1">  1       21 0.36262887E+00 0.32422543E+03</pdfrwt>
<pdfrwt beam="2">  1       21 0.68707760E-02 0.32422543E+03</pdfrwt>
<totfact> 0.20012051E+03</totfact>
</mgrwt>
<rwgt>
<wgt id='1'> +7.2536422e+02 </wgt>
<wgt id='2'> +5.4661942e+02 </wgt>
<wgt id='3'> +5.0481800e+02 </wgt>
<wgt id='4'> +7.2536421e+02 </wgt>
<wgt id='5'> +5.0464273e+02 </wgt>
<wgt id='6'> +6.0308927e+02 </wgt>
<wgt id='7'> +4.5833836e+02 </wgt>
<wgt id='8'> +4.2453687e+02 </wgt>
<wgt id='9'> +6.0308926e+02 </wgt>
<wgt id='10'> +4.2439496e+02 </wgt>
<wgt id='11'> +5.0718007e+02 </wgt>
<wgt id='12'> +3.8918672e+02 </wgt>
<wgt id='13'> +3.6146051e+02 </wgt>
<wgt id='14'> +5.0718007e+02 </wgt>
<wgt id='15'> +3.6134389e+02 </wgt>
<wgt id='16'> +6.0716868e+02 </wgt>
<wgt id='17'> +4.6363939e+02 </wgt>
<wgt id='18'> +4.2947546e+02 </wgt>
<wgt id='19'> +6.0716868e+02 </wgt>
<wgt id='20'> +4.2933196e+02 </wgt>
<wgt id='21'> +3.8875991e+02 </wgt>
<wgt id='22'> +3.6117605e+02 </wgt>
<wgt id='23'> +5.0481800e+02 </wgt>
<wgt id='24'> +3.6106004e+02 </wgt>
<wgt id='25'> +4.2453687e+02 </wgt>
<wgt id='26'> +3.3010589e+02 </wgt>
<wgt id='27'> +3.0751364e+02 </wgt>
<wgt id='28'> +4.2453687e+02 </wgt>
<wgt id='29'> +3.0741844e+02 </wgt>
<wgt id='30'> +5.1655062e+02 </wgt>
<wgt id='31'> +3.9821340e+02 </wgt>
<wgt id='32'> +3.6982317e+02 </wgt>
<wgt id='33'> +5.1655062e+02 </wgt>
<wgt id='34'> +3.6970371e+02 </wgt>
<wgt id='35'> +4.2947547e+02 </wgt>
<wgt id='36'> +3.3390046e+02 </wgt>
<wgt id='37'> +3.1101025e+02 </wgt>
<wgt id='38'> +4.2947546e+02 </wgt>
<wgt id='39'> +3.1091381e+02 </wgt>
<wgt id='40'> +3.6117605e+02 </wgt>
<wgt id='41'> +2.8352334e+02 </wgt>
<wgt id='42'> +2.6480132e+02 </wgt>
<wgt id='43'> +3.6117605e+02 </wgt>
<wgt id='44'> +2.6472228e+02 </wgt>
<wgt id='45'> +5.0481800e+02 </wgt>
<wgt id='46'> +5.0786884e+02 </wgt>
<wgt id='47'> +6.3233944e+02 </wgt>
<wgt id='48'> +5.0099080e+02 </wgt>
<wgt id='49'> +4.3085950e+02 </wgt>
<wgt id='50'> +6.4785338e+02 </wgt>
<wgt id='51'> +5.0603585e+02 </wgt>
<wgt id='52'> +3.9183215e+02 </wgt>
<wgt id='53'> +5.9356823e+02 </wgt>
<wgt id='54'> +5.2727984e+02 </wgt>
<wgt id='55'> +6.3828737e+02 </wgt>
<wgt id='56'> +4.8183425e+02 </wgt>
<wgt id='57'> +5.7022678e+02 </wgt>
<wgt id='58'> +4.0716514e+02 </wgt>
<wgt id='59'> +5.5523862e+02 </wgt>
<wgt id='60'> +4.8418256e+02 </wgt>
<wgt id='61'> +3.7746649e+02 </wgt>
<wgt id='62'> +4.2369857e+02 </wgt>
<wgt id='63'> +5.3686528e+02 </wgt>
<wgt id='64'> +5.0508796e+02 </wgt>
<wgt id='65'> +3.7211629e+02 </wgt>
<wgt id='66'> +5.1250786e+02 </wgt>
<wgt id='67'> +4.7774670e+02 </wgt>
<wgt id='68'> +8.2388416e+02 </wgt>
<wgt id='69'> +6.1008962e+02 </wgt>
<wgt id='70'> +7.3595091e+02 </wgt>
<wgt id='71'> +4.2722980e+02 </wgt>
<wgt id='72'> +3.9177706e+02 </wgt>
<wgt id='73'> +4.1031832e+02 </wgt>
<wgt id='74'> +7.2355321e+02 </wgt>
<wgt id='75'> +6.6102175e+02 </wgt>
<wgt id='76'> +4.9127496e+02 </wgt>
<wgt id='77'> +4.1244405e+02 </wgt>
<wgt id='78'> +4.0876941e+02 </wgt>
<wgt id='79'> +5.7658606e+02 </wgt>
<wgt id='80'> +3.3966008e+02 </wgt>
<wgt id='81'> +5.6479406e+02 </wgt>
<wgt id='82'> +4.8041799e+02 </wgt>
<wgt id='83'> +5.0941961e+02 </wgt>
<wgt id='84'> +4.0446786e+02 </wgt>
<wgt id='85'> +4.1714982e+02 </wgt>
<wgt id='86'> +5.4651177e+02 </wgt>
<wgt id='87'> +4.5487195e+02 </wgt>
<wgt id='88'> +5.7041143e+02 </wgt>
<wgt id='89'> +2.8045078e+02 </wgt>
<wgt id='90'> +3.8983400e+02 </wgt>
<wgt id='91'> +3.5726391e+02 </wgt>
<wgt id='92'> +4.6098198e+02 </wgt>
<wgt id='93'> +5.5151533e+02 </wgt>
<wgt id='94'> +4.0088817e+02 </wgt>
<wgt id='95'> +5.1932903e+02 </wgt>
<wgt id='96'> +4.6601704e+02 </wgt>
<wgt id='97'> +4.1260564e+02 </wgt>
<wgt id='98'> +6.5812680e+02 </wgt>
<wgt id='99'> +3.6578240e+02 </wgt>
<wgt id='100'> +3.0554154e+02 </wgt>
<wgt id='101'> +6.4852224e+02 </wgt>
<wgt id='102'> +6.2844515e+02 </wgt>
<wgt id='103'> +4.1523718e+02 </wgt>
<wgt id='104'> +5.7311542e+02 </wgt>
<wgt id='105'> +5.2806715e+02 </wgt>
<wgt id='106'> +5.1637418e+02 </wgt>
<wgt id='107'> +5.3785553e+02 </wgt>
<wgt id='108'> +4.5282349e+02 </wgt>
<wgt id='109'> +5.1970954e+02 </wgt>
<wgt id='110'> +3.5390336e+02 </wgt>
<wgt id='111'> +4.6588535e+02 </wgt>
<wgt id='112'> +5.1432376e+02 </wgt>
<wgt id='113'> +6.4852739e+02 </wgt>
<wgt id='114'> +3.9581896e+02 </wgt>
<wgt id='115'> +4.9261415e+02 </wgt>
<wgt id='116'> +6.0544784e+02 </wgt>
<wgt id='117'> +5.4025923e+02 </wgt>
<wgt id='118'> +5.0306458e+02 </wgt>
<wgt id='119'> +5.2383345e+02 </wgt>
<wgt id='120'> +4.7116976e+02 </wgt>
<wgt id='121'> +4.4741536e+02 </wgt>
<wgt id='122'> +4.5287985e+02 </wgt>
<wgt id='123'> +4.3234186e+02 </wgt>
<wgt id='124'> +5.7407714e+02 </wgt>
<wgt id='125'> +8.0823582e+02 </wgt>
<wgt id='126'> +4.7348631e+02 </wgt>
<wgt id='127'> +4.5340334e+02 </wgt>
<wgt id='128'> +5.0528112e+02 </wgt>
<wgt id='129'> +4.6942633e+02 </wgt>
<wgt id='130'> +4.5408463e+02 </wgt>
<wgt id='131'> +4.1916560e+02 </wgt>
<wgt id='132'> +5.2919617e+02 </wgt>
<wgt id='133'> +5.5357326e+02 </wgt>
<wgt id='134'> +6.0150039e+02 </wgt>
<wgt id='135'> +4.7483332e+02 </wgt>
<wgt id='136'> +6.4419660e+02 </wgt>
<wgt id='137'> +6.0961114e+02 </wgt>
<wgt id='138'> +6.0442274e+02 </wgt>
<wgt id='139'> +5.4107848e+02 </wgt>
<wgt id='140'> +4.7266592e+02 </wgt>
<wgt id='141'> +7.2923329e+02 </wgt>
<wgt id='142'> +2.1796437e+02 </wgt>
<wgt id='143'> +5.2413774e+02 </wgt>
<wgt id='144'> +4.2207478e+02 </wgt>
<wgt id='145'> +4.3459455e+02 </wgt>
</rwgt>
</event>
<event>
 4      1 +5.0481800e+02 2.60965300e+02 7.54677100e-03 1.10656500e-01
       21 -1    0    0  501  502 +0.0000000000e+00 +0.0000000000e+00 +1.3153555101e+02 1.3153555101e+02 0.0000000000e+00 0.0000e+00 -1.0000e+00
       21 -1    0    0  502  503 -0.0000000000e+00 -0.0000000000e+00 -5.1853770665e+02 5.1853770665e+02 0.0000000000e+00 0.0000e+00 1.0000e+00
        6  1    1    2  501    0 -1.3570317881e+02 +1.4056497690e+02 -1.8085303265e+02 3.1750698400e+02 1.7300000000e+02 0.0000e+00 1.0000e+00
       -6  1    1    2    0  503 +1.3570317881e+02 -1.4056497690e+02 -2.0614912299e+02 3.3256627367e+02 1.7300000000e+02 0.0000e+00 1.0000e+00
<mgrwt>
<rscale>  2 0.26096526E+03</rscale>
<asrwt>0</asrwt>
<pdfrwt beam="1">  1       21 0.20236239E-01 0.26096526E+03</pdfrwt>
<pdfrwt beam="2">  1       21 0.79775031E-01 0.26096526E+03</pdfrwt>
<totfact> 0.30213483E+04</totfact>
</mgrwt>
<rwgt>
<wgt id='1'> +6.5373557e+02 </wgt>
<wgt id='2'> +5.2778883e+02 </wgt>
<wgt id='3'> +5.0481800e+02 </wgt>
<wgt id='4'> +6.5373557e+02 </wgt>
<wgt id='5'> +5.0467980e+02 </wgt>
<wgt id='6'> +6.0952495e+02 </wgt>
<wgt id='7'> +4.8845673e+02 </wgt>
<wgt id='8'> +4.6725685e+02 </wgt>
<wgt id='9'> +6.0952495e+02 </wgt>
<wgt id='10'> +4.6712933e+02 </wgt>
<wgt id='11'> +5.6417304e+02 </wgt>
<wgt id='12'> +4.5251783e+02 </wgt>
<wgt id='13'> +4.3298466e+02 </wgt>
<wgt id='14'> +5.6417305e+02 </wgt>
<wgt id='15'> +4.3286717e+02 </wgt>
<wgt id='16'> +5.4143392e+02 </wgt>
<wgt id='17'> +4.4603802e+02 </wgt>
<wgt id='18'> +4.2767645e+02 </wgt>
<wgt id='19'> +5.4143393e+02 </wgt>
<wgt id='20'> +4.2756578e+02 </wgt>
<wgt id='21'> +4.1279820e+02 </wgt>
<wgt id='22'> +3.9585504e+02 </wgt>
<wgt id='23'> +5.0481800e+02 </wgt>
<wgt id='24'> +3.9575294e+02 </wgt>
<wgt id='25'> +4.6725685e+02 </wgt>
<wgt id='26'> +3.8242598e+02 </wgt>
<wgt id='27'> +3.6682000e+02 </wgt>
<wgt id='28'> +4.6725685e+02 </wgt>
<wgt id='29'> +3.6672597e+02 </wgt>
<wgt id='30'> +4.5869707e+02 </wgt>
<wgt id='31'> +3.8190610e+02 </wgt>
<wgt id='32'> +3.6695631e+02 </wgt>
<wgt id='33'> +4.5869707e+02 </wgt>
<wgt id='34'> +3.6686603e+02 </wgt>
<wgt id='35'> +4.2767644e+02 </wgt>
<wgt id='36'> +3.5344554e+02 </wgt>
<wgt id='37'> +3.3965281e+02 </wgt>
<wgt id='38'> +4.2767645e+02 </wgt>
<wgt id='39'> +3.3956953e+02 </wgt>
<wgt id='40'> +3.9585504e+02 </wgt>
<wgt id='41'> +3.2744028e+02 </wgt>
<wgt id='42'> +3.1474007e+02 </wgt>
<wgt id='43'> +3.9585504e+02 </wgt>
<wgt id='44'> +3.1466340e+02 </wgt>
<wgt id='45'> +5.0481800e+02 </wgt>
<wgt id='46'> +5.1323791e+02 </wgt>
<wgt id='47'> +5.2353692e+02 </wgt>
<wgt id='48'> +5.0963667e+02 </wgt>
<wgt id='49'> +4.9933557e+02 </wgt>
<wgt id='50'> +6.0260774e+02 </wgt>
<wgt id='51'> +4.9362993e+02 </wgt>
<wgt id='52'> +5.0300589e+02 </wgt>
<wgt id='53'> +5.0277527e+02 </wgt>
<wgt id='54'> +5.1070219e+02 </wgt>
<wgt id='55'> +4.6580618e+02 </wgt>
<wgt id='56'> +4.6276110e+02 </wgt>
<wgt id='57'> +4.9965031e+02 </wgt>
<wgt id='58'> +4.9754101e+02 </wgt>
<wgt id='59'> +5.1378798e+02 </wgt>
<wgt id='60'> +4.9643216e+02 </wgt>
<wgt id='61'> +4.5858582e+02 </wgt>
<wgt id='62'> +4.9690191e+02 </wgt>
<wgt id='63'> +5.0633648e+02 </wgt>
<wgt id='64'> +4.9499252e+02 </wgt>
<wgt id='65'> +5.7613676e+02 </wgt>
<wgt id='66'> +4.9569252e+02 </wgt>
<wgt id='67'> +5.0853860e+02 </wgt>
<wgt id='68'> +5.5291714e+02 </wgt>
<wgt id='69'> +5.0339132e+02 </wgt>
<wgt id='70'> +4.9758693e+02 </wgt>
<wgt id='71'> +5.1138906e+02 </wgt>
<wgt id='72'> +4.8254306e+02 </wgt>
<wgt id='73'> +4.9137985e+02 </wgt>
<wgt id='74'> +5.3046909e+02 </wgt>
<wgt id='75'> +5.1761553e+02 </wgt>
<wgt id='76'> +4.9419851e+02 </wgt>
<wgt id='77'> +4.9230375e+02 </wgt>
<wgt id='78'> +4.8995234e+02 </wgt>
<wgt id='79'> +4.9424400e+02 </wgt>
<wgt id='80'> +4.9369302e+02 </wgt>
<wgt id='81'> +4.9484070e+02 </wgt>
<wgt id='82'> +5.0548526e+02 </wgt>
<wgt id='83'> +5.1461517e+02 </wgt>
<wgt id='84'> +5.4887520e+02 </wgt>
<wgt id='85'> +5.2111337e+02 </wgt>
<wgt id='86'> +5.0677740e+02 </wgt>
<wgt id='87'> +5.0736520e+02 </wgt>
<wgt id='88'> +5.1106701e+02 </wgt>
<wgt id='89'> +5.1346031e+02 </wgt>
<wgt id='90'> +5.1277505e+02 </wgt>
<wgt id='91'> +5.2458210e+02 </wgt>
<wgt id='92'> +4.5842019e+02 </wgt>
<wgt id='93'> +5.0107921e+02 </wgt>
<wgt id='94'> +4.9395778e+02 </wgt>
<wgt id='95'> +4.9099712e+02 </wgt>
<wgt id='96'> +5.4605845e+02 </wgt>
<wgt id='97'> +5.0345107e+02 </wgt>
<wgt id='98'> +4.8962657e+02 </wgt>
<wgt id='99'> +4.8208236e+02 </wgt>
<wgt id='100'> +4.7921428e+02 </wgt>
<wgt id='101'> +5.4969783e+02 </wgt>
<wgt id='102'> +5.1082455e+02 </wgt>
<wgt id='103'> +5.4622014e+02 </wgt>
<wgt id='104'> +5.0928225e+02 </wgt>
<wgt id='105'> +5.2049359e+02 </wgt>
<wgt id='106'> +4.5918490e+02 </wgt>
<wgt id='107'> +4.8518537e+02 </wgt>
<wgt id='108'> +4.4593320e+02 </wgt>
<wgt id='109'> +4.7286836e+02 </wgt>
<wgt id='110'> +5.0093048e+02 </wgt>
<wgt id='111'> +4.9010606e+02 </wgt>
<wgt id='112'> +4.7830721e+02 </wgt>
<wgt id='113'> +4.6527394e+02 </wgt>
<wgt id='114'> +4.9486228e+02 </wgt>
<wgt id='115'> +4.8775575e+02 </wgt>
<wgt id='116'> +5.1831425e+02 </wgt>
<wgt id='117'> +5.0360944e+02 </wgt>
<wgt id='118'> +5.2693398e+02 </wgt>
<wgt id='119'> +4.8880616e+02 </wgt>
<wgt id='120'> +4.9537647e+02 </wgt>
<wgt id='121'> +4.9157866e+02 </wgt>
<wgt id='122'> +4.9857225e+02 </wgt>
<wgt id='123'> +5.1053581e+02 </wgt>
<wgt id='124'> +5.5329825e+02 </wgt>
<wgt id='125'> +5.5683508e+02 </wgt>
<wgt id='126'> +5.2336175e+02 </wgt>
<wgt id='127'> +5.1932233e+02 </wgt>
<wgt id='128'> +4.6256558e+02 </wgt>
<wgt id='129'> +5.6793313e+02 </wgt>
<wgt id='130'> +5.0450402e+02 </wgt>
<wgt id='131'> +5.3097072e+02 </wgt>
<wgt id='132'> +5.1791445e+02 </wgt>
<wgt id='133'> +5.1375378e+02 </wgt>
<wgt id='134'> +4.8478458e+02 </wgt>
<wgt id='135'> +5.1371451e+02 </wgt>
<wgt id='136'> +5.0624395e+02 </wgt>
<wgt id='137'> +4.8250973e+02 </wgt>
<wgt id='138'> +4.7242794e+02 </wgt>
<wgt id='139'> +5.1845037e+02 </wgt>
<wgt id='140'> +5.2515130e+02 </wgt>
<wgt id='141'> +5.1074957e+02 </wgt>
<wgt id='142'> +4.8430218e+02 </wgt>
<wgt id='143'> +5.0932822e+02 </wgt>
<wgt id='144'> +4.9636406e+02 </wgt>
<wgt id='145'> +5.0349227e+02 </wgt>
</rwgt>
</event>
<event>
 4      1 +5.0481800e+02 1.89604900e+02 7.54677100e-03 1.15881800e-01
       21 -1    0    0  503  502 +0.0000000000e+00 +0.0000000000e+00 +2.8834783708e+01 2.8834783708e+01 0.0000000000e+00 0.0000e+00 1.0000e+00
       21 -1    0    0  501  503 -0.0000000000e+00 -0.0000000000e+00 -1.2569090337e+03 1.2569090337e+03 0.0000000000e+00 0.0000e+00 1.0000e+00
        6  1    1    2  501    0 -5.9748889964e+01 +4.9508615037e+01 -5.5626726886e+02 5.8769320842e+02 1.7300000000e+02 0.0000e+00 1.0000e+00
       -6  1    1    2    0  502 +5.9748889964e+01 -4.9508615037e+01 -6.7180698112e+02 6.9805060898e+02 1.7300000000e+02 0.0000e+00 1.0000e+00
<mgrwt>
<rscale>  2 0.18960494E+03</rscale>
<asrwt>0</asrwt>
<pdfrwt beam="1">  1       21 0.44361208E-02 0.18960494E+03</pdfrwt>
<pdfrwt beam="2">  1       21 0.19337061E+00 0.18960494E+03</pdfrwt>
<totfact> 0.48904783E+04</totfact>
</mgrwt>
<rwgt>
<wgt id='1'> +6.6738957e+02 </wgt>
<wgt id='2'> +7.1407727e+02 </wgt>
<wgt id='3'> +5.0481800e+02 </wgt>
<wgt id='4'> +6.6738957e+02 </wgt>
<wgt id='5'> +5.0401987e+02 </wgt>
<wgt id='6'> +6.1994295e+02 </wgt>
<wgt id='7'> +6.6536774e+02 </wgt>
<wgt id='8'> +4.6133391e+02 </wgt>
<wgt id='9'> +6.1994295e+02 </wgt>
<wgt id='10'> +4.6059347e+02 </wgt>
<wgt id='11'> +5.6654221e+02 </wgt>
<wgt id='12'> +6.0919750e+02 </wgt>
<wgt id='13'> +4.2207665e+02 </wgt>
<wgt id='14'> +5.6654221e+02 </wgt>
<wgt id='15'> +4.2140354e+02 </wgt>
<wgt id='16'> +5.4345367e+02 </wgt>
<wgt id='17'> +5.7732869e+02 </wgt>
<wgt id='18'> +4.2481585e+02 </wgt>
<wgt id='19'> +5.4345367e+02 </wgt>
<wgt id='20'> +4.2419331e+02 </wgt>
<wgt id='21'> +5.3794722e+02 </wgt>
<wgt id='22'> +3.8822300e+02 </wgt>
<wgt id='23'> +5.0481800e+02 </wgt>
<wgt id='24'> +3.8764478e+02 </wgt>
<wgt id='25'> +4.6133391e+02 </wgt>
<wgt id='26'> +4.9253380e+02 </wgt>
<wgt id='27'> +3.5518712e+02 </wgt>
<wgt id='28'> +4.6133391e+02 </wgt>
<wgt id='29'> +3.5466173e+02 </wgt>
<wgt id='30'> +4.5732864e+02 </wgt>
<wgt id='31'> +4.8315407e+02 </wgt>
<wgt id='32'> +3.6246334e+02 </wgt>
<wgt id='33'> +4.5732864e+02 </wgt>
<wgt id='34'> +3.6195880e+02 </wgt>
<wgt id='35'> +4.2481585e+02 </wgt>
<wgt id='36'> +4.5019657e+02 </wgt>
<wgt id='37'> +3.3124142e+02 </wgt>
<wgt id='38'> +4.2481585e+02 </wgt>
<wgt id='39'> +3.3077240e+02 </wgt>
<wgt id='40'> +3.8822300e+02 </wgt>
<wgt id='41'> +4.1219104e+02 </wgt>
<wgt id='42'> +3.0305440e+02 </wgt>
<wgt id='43'> +3.8822300e+02 </wgt>
<wgt id='44'> +3.0262838e+02 </wgt>
<wgt id='45'> +5.0481800e+02 </wgt>
<wgt id='46'> +5.1847315e+02 </wgt>
<wgt id='47'> +5.2024133e+02 </wgt>
<wgt id='48'> +5.0335089e+02 </wgt>
<wgt id='49'> +4.6806265e+02 </wgt>
<wgt id='50'> +5.8354713e+02 </wgt>
<wgt id='51'> +4.7654310e+02 </wgt>
<wgt id='52'> +4.7412930e+02 </wgt>
<wgt id='53'> +5.0496226e+02 </wgt>
<wgt id='54'> +5.3507947e+02 </wgt>
<wgt id='55'> +5.6575907e+02 </wgt>
<wgt id='56'> +4.8478103e+02 </wgt>
<wgt id='57'> +5.3677027e+02 </wgt>
<wgt id='58'> +4.6125429e+02 </wgt>
<wgt id='59'> +5.4923697e+02 </wgt>
<wgt id='60'> +5.0918748e+02 </wgt>
<wgt id='61'> +4.4421430e+02 </wgt>
<wgt id='62'> +4.6720276e+02 </wgt>
<wgt id='63'> +5.3162763e+02 </wgt>
<wgt id='64'> +5.0670438e+02 </wgt>
<wgt id='65'> +4.6037716e+02 </wgt>
<wgt id='66'> +5.1032975e+02 </wgt>
<wgt id='67'> +5.0751103e+02 </wgt>
<wgt id='68'> +6.0724195e+02 </wgt>
<wgt id='69'> +5.4110532e+02 </wgt>
<wgt id='70'> +5.4212722e+02 </wgt>
<wgt id='71'> +4.7125434e+02 </wgt>
<wgt id='72'> +4.6717675e+02 </wgt>
<wgt id='73'> +4.6032897e+02 </wgt>
<wgt id='74'> +5.7586012e+02 </wgt>
<wgt id='75'> +5.4639409e+02 </wgt>
<wgt id='76'> +5.1901744e+02 </wgt>
<wgt id='77'> +4.8000107e+02 </wgt>
<wgt id='78'> +4.3794257e+02 </wgt>
<wgt id='79'> +5.4048568e+02 </wgt>
<wgt id='80'> +4.5024664e+02 </wgt>
<wgt id='81'> +5.2224696e+02 </wgt>
<wgt id='82'> +4.9394279e+02 </wgt>
<wgt id='83'> +4.9566858e+02 </wgt>
<wgt id='84'> +4.9114209e+02 </wgt>
<wgt id='85'> +4.5882635e+02 </wgt>
<wgt id='86'> +5.2808556e+02 </wgt>
<wgt id='87'> +4.9898380e+02 </wgt>
<wgt id='88'> +4.9045833e+02 </wgt>
<wgt id='89'> +4.3556618e+02 </wgt>
<wgt id='90'> +4.7411015e+02 </wgt>
<wgt id='91'> +4.4361960e+02 </wgt>
<wgt id='92'> +4.7584786e+02 </wgt>
<wgt id='93'> +5.1097773e+02 </wgt>
<wgt id='94'> +4.6551431e+02 </wgt>
<wgt id='95'> +5.3121001e+02 </wgt>
<wgt id='96'> +5.2521334e+02 </wgt>
<wgt id='97'> +4.5960672e+02 </wgt>
<wgt id='98'> +5.4072926e+02 </wgt>
<wgt id='99'> +4.2949220e+02 </wgt>
<wgt id='100'> +3.9264656e+02 </wgt>
<wgt id='101'> +5.8498854e+02 </wgt>
<wgt id='102'> +5.6506874e+02 </wgt>
<wgt id='103'> +4.8422512e+02 </wgt>
<wgt id='104'> +5.3663050e+02 </wgt>
<wgt id='105'> +5.1701936e+02 </wgt>
<wgt id='106'> +4.9269687e+02 </wgt>
<wgt id='107'> +4.8935328e+02 </wgt>
<wgt id='108'> +4.7391613e+02 </wgt>
<wgt id='109'> +5.0109348e+02 </wgt>
<wgt id='110'> +4.6772638e+02 </wgt>
<wgt id='111'> +4.9111899e+02 </wgt>
<wgt id='112'> +5.2487933e+02 </wgt>
<wgt id='113'> +5.3034723e+02 </wgt>
<wgt id='114'> +5.2321889e+02 </wgt>
<wgt id='115'> +4.6193367e+02 </wgt>
<wgt id='116'> +5.5115069e+02 </wgt>
<wgt id='117'> +4.9343310e+02 </wgt>
<wgt id='118'> +5.1986958e+02 </wgt>
<wgt id='119'> +5.5206535e+02 </wgt>
<wgt id='120'> +5.0407189e+02 </wgt>
<wgt id='121'> +4.9941712e+02 </wgt>
<wgt id='122'> +4.9483326e+02 </wgt>
<wgt id='123'> +4.8162683e+02 </wgt>
<wgt id='124'> +5.6634910e+02 </wgt>
<wgt id='125'> +6.2691401e+02 </wgt>
<wgt id='126'> +4.9476387e+02 </wgt>
<wgt id='127'> +4.8438475e+02 </wgt>
<wgt id='128'> +4.8528020e+02 </wgt>
<wgt id='129'> +5.1470957e+02 </wgt>
<wgt id='130'> +4.8855740e+02 </wgt>
<wgt id='131'> +4.6658766e+02 </wgt>
<wgt id='132'> +5.5365661e+02 </wgt>
<wgt id='133'> +5.4921428e+02 </wgt>
<wgt id='134'> +5.3108522e+02 </wgt>
<wgt id='135'> +4.8414578e+02 </wgt>
<wgt id='136'> +5.9439380e+02 </wgt>
<wgt id='137'> +5.2638974e+02 </wgt>
<wgt id='138'> +5.1366422e+02 </wgt>
<wgt id='139'> +5.2087354e+02 </wgt>
<wgt id='140'> +4.9228439e+02 </wgt>
<wgt id='141'> +5.6825117e+02 </wgt>
<wgt id='142'> +3.6310422e+02 </wgt>
<wgt id='143'> +5.1900945e+02 </wgt>
<wgt id='144'> +4.6217588e+02 </wgt>
<wgt id='145'> +4.6591032e+02 </wgt>
</rwgt>
</event>
<event>
 4      1 +5.0481800e+02 2.10338100e+02 7.54677100e-03 1.14129900e-01
       21 -1    0    0  503  502 +0.0000000000e+00 +0.0000000000e+00 +2.3160859656e+02 2.3160859656e+02 0.0000000000e+00 0.0000e+00 -1.0000e+00
       21 -1    0    0  501  503 -0.0000000000e+00 -0.0000000000e+00 -2.0877830601e+02 2.0877830601e+02 0.0000000000e+00 0.0000e+00 1.0000e+00
        6  1    1    2  501    0 +1.1860838246e+02 +1.5657888221e+01 +7.5632086114e+01 2.2352254988e+02 1.7300000000e+02 0.0000e+00 -1.0000e+00
       -6  1    1    2    0  502 -1.1860838246e+02 -1.5657888221e+01 -5.2801795570e+01 2.1686435269e+02 1.7300000000e+02 0.0000e+00 -1.0000e+00
<mgrwt>
<rscale>  2 0.21033810E+03</rscale>
<asrwt>0</asrwt>
<pdfrwt beam="1">  1       21 0.35632092E-01 0.21033810E+03</pdfrwt>
<pdfrwt beam="2">  1       21 0.32119739E-01 0.21033810E+03</pdfrwt>
<totfact> 0.70257280E+04</totfact>
</mgrwt>
<rwgt>
<wgt id='1'> +6.4666880e+02 </wgt>
<wgt id='2'> +5.1951909e+02 </wgt>
<wgt id='3'> +5.0481800e+02 </wgt>
<wgt id='4'> +6.4666879e+02 </wgt>
<wgt id='5'> +4.9712298e+02 </wgt>
<wgt id='6'> +6.1656325e+02 </wgt>
<wgt id='7'> +4.8786274e+02 </wgt>
<wgt id='8'> +4.7393647e+02 </wgt>
<wgt id='9'> +6.1656325e+02 </wgt>
<wgt id='10'> +4.6672295e+02 </wgt>
<wgt id='11'> +5.7884587e+02 </wgt>
<wgt id='12'> +4.5791245e+02 </wgt>
<wgt id='13'> +4.4484245e+02 </wgt>
<wgt id='14'> +5.7884586e+02 </wgt>
<wgt id='15'> +4.3807480e+02 </wgt>
<wgt id='16'> +5.2946725e+02 </wgt>
<wgt id='17'> +4.3744767e+02 </wgt>
<wgt id='18'> +4.2586969e+02 </wgt>
<wgt id='19'> +5.2946725e+02 </wgt>
<wgt id='20'> +4.1973088e+02 </wgt>
<wgt id='21'> +4.1079226e+02 </wgt>
<wgt id='22'> +3.9981772e+02 </wgt>
<wgt id='23'> +5.0481800e+02 </wgt>
<wgt id='24'> +3.9406353e+02 </wgt>
<wgt id='25'> +4.7393647e+02 </wgt>
<wgt id='26'> +3.8557339e+02 </wgt>
<wgt id='27'> +3.7527370e+02 </wgt>
<wgt id='28'> +4.7393647e+02 </wgt>
<wgt id='29'> +3.6987532e+02 </wgt>
<wgt id='30'> +4.4666406e+02 </wgt>
<wgt id='31'> +3.7338458e+02 </wgt>
<wgt id='32'> +3.6404296e+02 </wgt>
<wgt id='33'> +4.4666405e+02 </wgt>
<wgt id='34'> +3.5907617e+02 </wgt>
<wgt id='35'> +4.2586969e+02 </wgt>
<wgt id='36'> +3.5063279e+02 </wgt>
<wgt id='37'> +3.4177315e+02 </wgt>
<wgt id='38'> +4.2586969e+02 </wgt>
<wgt id='39'> +3.3711797e+02 </wgt>
<wgt id='40'> +3.9981772e+02 </wgt>
<wgt id='41'> +3.2910715e+02 </wgt>
<wgt id='42'> +3.2079237e+02 </wgt>
<wgt id='43'> +3.9981772e+02 </wgt>
<wgt id='44'> +3.1642517e+02 </wgt>
<wgt id='45'> +5.0481800e+02 </wgt>
<wgt id='46'> +5.0376887e+02 </wgt>
<wgt id='47'> +5.2284338e+02 </wgt>
<wgt id='48'> +5.0592293e+02 </wgt>
<wgt id='49'> +5.0413210e+02 </wgt>
<wgt id='50'> +5.8731891e+02 </wgt>
<wgt id='51'> +4.9518558e+02 </wgt>
<wgt id='52'> +5.0137296e+02 </wgt>
<wgt id='53'> +5.1228398e+02 </wgt>
<wgt id='54'> +5.0760608e+02 </wgt>
<wgt id='55'> +4.4964079e+02 </wgt>
<wgt id='56'> +4.7100457e+02 </wgt>
<wgt id='57'> +4.9025628e+02 </wgt>
<wgt id='58'> +5.0914757e+02 </wgt>
<wgt id='59'> +4.9489984e+02 </wgt>
<wgt id='60'> +4.8204848e+02 </wgt>
<wgt id='61'> +4.9585665e+02 </wgt>
<wgt id='62'> +4.9826898e+02 </wgt>
<wgt id='63'> +5.0529972e+02 </wgt>
<wgt id='64'> +5.0119608e+02 </wgt>
<wgt id='65'> +5.9797833e+02 </wgt>
<wgt id='66'> +4.9269517e+02 </wgt>
<wgt id='67'> +5.0946103e+02 </wgt>
<wgt id='68'> +5.3910640e+02 </wgt>
<wgt id='69'> +4.9161455e+02 </wgt>
<wgt id='70'> +4.9649884e+02 </wgt>
<wgt id='71'> +5.1444462e+02 </wgt>
<wgt id='72'> +4.9135500e+02 </wgt>
<wgt id='73'> +4.9873661e+02 </wgt>
<wgt id='74'> +5.1849807e+02 </wgt>
<wgt id='75'> +5.1607490e+02 </wgt>
<wgt id='76'> +4.8959620e+02 </wgt>
<wgt id='77'> +4.8527606e+02 </wgt>
<wgt id='78'> +5.0716871e+02 </wgt>
<wgt id='79'> +4.8298133e+02 </wgt>
<wgt id='80'> +5.0120800e+02 </wgt>
<wgt id='81'> +4.9576277e+02 </wgt>
<wgt id='82'> +5.2008419e+02 </wgt>
<wgt id='83'> +5.1552131e+02 </wgt>
<wgt id='84'> +5.5516305e+02 </wgt>
<wgt id='85'> +5.3235889e+02 </wgt>
<wgt id='86'> +5.0106159e+02 </wgt>
<wgt id='87'> +5.0434426e+02 </wgt>
<wgt id='88'> +5.1407704e+02 </wgt>
<wgt id='89'> +5.1644894e+02 </wgt>
<wgt id='90'> +5.0959504e+02 </wgt>
<wgt id='91'> +5.3844526e+02 </wgt>
<wgt id='92'> +4.6516110e+02 </wgt>
<wgt id='93'> +4.9550010e+02 </wgt>
<wgt id='94'> +5.0298979e+02 </wgt>
<wgt id='95'> +4.8345270e+02 </wgt>
<wgt id='96'> +5.4536172e+02 </wgt>
<wgt id='97'> +5.1370312e+02 </wgt>
<wgt id='98'> +4.8075800e+02 </wgt>
<wgt id='99'> +4.9084157e+02 </wgt>
<wgt id='100'> +5.0327979e+02 </wgt>
<wgt id='101'> +5.2733897e+02 </wgt>
<wgt id='102'> +4.8767358e+02 </wgt>
<wgt id='103'> +5.4776311e+02 </wgt>
<wgt id='104'> +5.0370439e+02 </wgt>
<wgt id='105'> +5.2512348e+02 </wgt>
<wgt id='106'> +4.6541970e+02 </wgt>
<wgt id='107'> +5.0053941e+02 </wgt>
<wgt id='108'> +4.5388510e+02 </wgt>
<wgt id='109'> +4.7477383e+02 </wgt>
<wgt id='110'> +5.0598800e+02 </wgt>
<wgt id='111'> +4.9198933e+02 </wgt>
<wgt id='112'> +4.8290831e+02 </wgt>
<wgt id='113'> +4.6375418e+02 </wgt>
<wgt id='114'> +5.0538342e+02 </wgt>
<wgt id='115'> +5.0926977e+02 </wgt>
<wgt id='116'> +5.0266914e+02 </wgt>
<wgt id='117'> +5.1298574e+02 </wgt>
<wgt id='118'> +5.1603465e+02 </wgt>
<wgt id='119'> +4.8509076e+02 </wgt>
<wgt id='120'> +5.0519977e+02 </wgt>
<wgt id='121'> +4.9040721e+02 </wgt>
<wgt id='122'> +4.9825910e+02 </wgt>
<wgt id='123'> +5.1155876e+02 </wgt>
<wgt id='124'> +5.3670997e+02 </wgt>
<wgt id='125'> +5.3796935e+02 </wgt>
<wgt id='126'> +5.2430095e+02 </wgt>
<wgt id='127'> +5.1947998e+02 </wgt>
<wgt id='128'> +4.7045317e+02 </wgt>
<wgt id='129'> +5.7130554e+02 </wgt>
<wgt id='130'> +5.0960010e+02 </wgt>
<wgt id='131'> +5.4150185e+02 </wgt>
<wgt id='132'> +4.9629307e+02 </wgt>
<wgt id='133'> +4.9972550e+02 </wgt>
<wgt id='134'> +4.7358431e+02 </wgt>
<wgt id='135'> +5.1801181e+02 </wgt>
<wgt id='136'> +4.8094419e+02 </wgt>
<wgt id='137'> +4.7499752e+02 </wgt>
<wgt id='138'> +4.5812259e+02 </wgt>
<wgt id='139'> +5.1367834e+02 </wgt>
<wgt id='140'> +5.3810239e+02 </wgt>
<wgt id='141'> +5.0361329e+02 </wgt>
<wgt id='142'> +5.1092336e+02 </wgt>
<wgt id='143'> +4.9876160e+02 </wgt>
<wgt id='144'> +5.0510011e+02 </wgt>
<wgt id='145'> +5.0602080e+02 </wgt>
</rwgt>
</event>
<event>
 4      1 +5.0481800e+02 2.23495700e+02 7.54677100e-03 1.13130300e-01
       21 -1    0    0  501  502 +0.0000000000e+00 +0.0000000000e+00 +1.9406873981e+02 1.9406873981e+02 0.0000000000e+00 0.0000e+00 -1.0000e+00
       21 -1    0    0  502  503 -0.0000000000e+00 -0.0000000000e+00 -2.6953082587e+02 2.6953082587e+02 0.0000000000e+00 0.0000e+00 -1.0000e+00
        6  1    1    2  501    0 +1.7067165464e+01 -1.4046359927e+02 +1.1476189165e+01 2.2379011099e+02 1.7300000000e+02 0.0000e+00 -1.0000e+00
       -6  1    1    2    0  503 -1.7067165464e+01 +1.4046359927e+02 -8.6938275231e+01 2.3980945469e+02 1.7300000000e+02 0.0000e+00 -1.0000e+00
<mgrwt>
<rscale>  2 0.22349566E+03</rscale>
<asrwt>0</asrwt>
<pdfrwt beam="1">  1       21 0.29856729E-01 0.22349566E+03</pdfrwt>
<pdfrwt beam="2">  1       21 0.41466281E-01 0.22349566E+03</pdfrwt>
<totfact> 0.59403288E+04</totfact>
</mgrwt>
<rwgt>
<wgt id='1'> +6.4775042e+02 </wgt>
<wgt id='2'> +5.1279120e+02 </wgt>
<wgt id='3'> +5.0481800e+02 </wgt>
<wgt id='4'> +6.4775042e+02 </wgt>
<wgt id='5'> +5.0077975e+02 </wgt>
<wgt id='6'> +6.1446770e+02 </wgt>
<wgt id='7'> +4.8010358e+02 </wgt>
<wgt id='8'> +4.7266268e+02 </wgt>
<wgt id='9'> +6.1446770e+02 </wgt>
<wgt id='10'> +4.6888946e+02 </wgt>
<wgt id='11'> +5.7532804e+02 </wgt>
<wgt id='12'> +4.4951697e+02 </wgt>
<wgt id='13'> +4.4256071e+02 </wgt>
<wgt id='14'> +5.7532804e+02 </wgt>
<wgt id='15'> +4.3903369e+02 </wgt>
<wgt id='16'> +5.3216153e+02 </wgt>
<wgt id='17'> +4.3272777e+02 </wgt>
<wgt id='18'> +4.2635718e+02 </wgt>
<wgt id='19'> +5.3216153e+02 </wgt>
<wgt id='20'> +4.2313305e+02 </wgt>
<wgt id='21'> +4.0514375e+02 </wgt>
<wgt id='22'> +3.9919956e+02 </wgt>
<wgt id='23'> +5.0481800e+02 </wgt>
<wgt id='24'> +3.9618739e+02 </wgt>
<wgt id='25'> +4.7266268e+02 </wgt>
<wgt id='26'> +3.7933271e+02 </wgt>
<wgt id='27'> +3.7377616e+02 </wgt>
<wgt id='28'> +4.7266268e+02 </wgt>
<wgt id='29'> +3.7096081e+02 </wgt>
<wgt id='30'> +4.4945086e+02 </wgt>
<wgt id='31'> +3.7000903e+02 </wgt>
<wgt id='32'> +3.6484828e+02 </wgt>
<wgt id='33'> +4.4945086e+02 </wgt>
<wgt id='34'> +3.6223468e+02 </wgt>
<wgt id='35'> +4.2635718e+02 </wgt>
<wgt id='36'> +3.4642299e+02 </wgt>
<wgt id='37'> +3.4160859e+02 </wgt>
<wgt id='38'> +4.2635718e+02 </wgt>
<wgt id='39'> +3.3916711e+02 </wgt>
<wgt id='40'> +3.9919956e+02 </wgt>
<wgt id='41'> +3.2435295e+02 </wgt>
<wgt id='42'> +3.1985293e+02 </wgt>
<wgt id='43'> +3.9919956e+02 </wgt>
<wgt id='44'> +3.1757120e+02 </wgt>
<wgt id='45'> +5.0481800e+02 </wgt>
<wgt id='46'> +5.0518978e+02 </wgt>
<wgt id='47'> +5.2348282e+02 </wgt>
<wgt id='48'> +5.0675293e+02 </wgt>
<wgt id='49'> +5.0389041e+02 </wgt>
<wgt id='50'> +5.9065934e+02 </wgt>
<wgt id='51'> +4.9517784e+02 </wgt>
<wgt id='52'> +5.0170404e+02 </wgt>
<wgt id='53'> +5.1103920e+02 </wgt>
<wgt id='54'> +5.0767265e+02 </wgt>
<wgt id='55'> +4.5006896e+02 </wgt>
<wgt id='56'> +4.6959135e+02 </wgt>
<wgt id='57'> +4.9055340e+02 </wgt>
<wgt id='58'> +5.0771999e+02 </wgt>
<wgt id='59'> +4.9673053e+02 </wgt>
<wgt id='60'> +4.8370404e+02 </wgt>
<wgt id='61'> +4.9252638e+02 </wgt>
<wgt id='62'> +4.9847215e+02 </wgt>
<wgt id='63'> +5.0532962e+02 </wgt>
<wgt id='64'> +4.9990024e+02 </wgt>
<wgt id='65'> +5.9684640e+02 </wgt>
<wgt id='66'> +4.9309118e+02 </wgt>
<wgt id='67'> +5.0942734e+02 </wgt>
<wgt id='68'> +5.4082638e+02 </wgt>
<wgt id='69'> +4.9340813e+02 </wgt>
<wgt id='70'> +4.9633684e+02 </wgt>
<wgt id='71'> +5.1428698e+02 </wgt>
<wgt id='72'> +4.8903644e+02 </wgt>
<wgt id='73'> +4.9796631e+02 </wgt>
<wgt id='74'> +5.2007300e+02 </wgt>
<wgt id='75'> +5.1641409e+02 </wgt>
<wgt id='76'> +4.8949215e+02 </wgt>
<wgt id='77'> +4.8626816e+02 </wgt>
<wgt id='78'> +5.0530525e+02 </wgt>
<wgt id='79'> +4.8412711e+02 </wgt>
<wgt id='80'> +5.0055991e+02 </wgt>
<wgt id='81'> +4.9530809e+02 </wgt>
<wgt id='82'> +5.1889509e+02 </wgt>
<wgt id='83'> +5.1605099e+02 </wgt>
<wgt id='84'> +5.5547433e+02 </wgt>
<wgt id='85'> +5.3190162e+02 </wgt>
<wgt id='86'> +5.0196799e+02 </wgt>
<wgt id='87'> +5.0485654e+02 </wgt>
<wgt id='88'> +5.1432010e+02 </wgt>
<wgt id='89'> +5.1685928e+02 </wgt>
<wgt id='90'> +5.1012664e+02 </wgt>
<wgt id='91'> +5.3759786e+02 </wgt>
<wgt id='92'> +4.6299373e+02 </wgt>
<wgt id='93'> +4.9634681e+02 </wgt>
<wgt id='94'> +5.0188320e+02 </wgt>
<wgt id='95'> +4.8321308e+02 </wgt>
<wgt id='96'> +5.4679854e+02 </wgt>
<wgt id='97'> +5.1266354e+02 </wgt>
<wgt id='98'> +4.8137794e+02 </wgt>
<wgt id='99'> +4.9010995e+02 </wgt>
<wgt id='100'> +5.0056525e+02 </wgt>
<wgt id='101'> +5.3031168e+02 </wgt>
<wgt id='102'> +4.9042218e+02 </wgt>
<wgt id='103'> +5.4855128e+02 </wgt>
<wgt id='104'> +5.0448690e+02 </wgt>
<wgt id='105'> +5.2410263e+02 </wgt>
<wgt id='106'> +4.6342112e+02 </wgt>
<wgt id='107'> +4.9809567e+02 </wgt>
<wgt id='108'> +4.5191065e+02 </wgt>
<wgt id='109'> +4.7359840e+02 </wgt>
<wgt id='110'> +5.0543145e+02 </wgt>
<wgt id='111'> +4.9126320e+02 </wgt>
<wgt id='112'> +4.8170223e+02 </wgt>
<wgt id='113'> +4.6298217e+02 </wgt>
<wgt id='114'> +5.0302180e+02 </wgt>
<wgt id='115'> +5.0644108e+02 </wgt>
<wgt id='116'> +5.0486481e+02 </wgt>
<wgt id='117'> +5.1191048e+02 </wgt>
<wgt id='118'> +5.1788772e+02 </wgt>
<wgt id='119'> +4.8466092e+02 </wgt>
<wgt id='120'> +5.0346993e+02 </wgt>
<wgt id='121'> +4.8984222e+02 </wgt>
<wgt id='122'> +4.9804198e+02 </wgt>
<wgt id='123'> +5.1193015e+02 </wgt>
<wgt id='124'> +5.3912187e+02 </wgt>
<wgt id='125'> +5.4025567e+02 </wgt>
<wgt id='126'> +5.2493230e+02 </wgt>
<wgt id='127'> +5.2002922e+02 </wgt>
<wgt id='128'> +4.6920939e+02 </wgt>
<wgt id='129'> +5.7162168e+02 </wgt>
<wgt id='130'> +5.0978727e+02 </wgt>
<wgt id='131'> +5.4097179e+02 </wgt>
<wgt id='132'> +4.9826647e+02 </wgt>
<wgt id='133'> +5.0143146e+02 </wgt>
<wgt id='134'> +4.7431857e+02 </wgt>
<wgt id='135'> +5.1780708e+02 </wgt>
<wgt id='136'> +4.8274982e+02 </wgt>
<wgt id='137'> +4.7581897e+02 </wgt>
<wgt id='138'> +4.6013390e+02 </wgt>
<wgt id='139'> +5.1444352e+02 </wgt>
<wgt id='140'> +5.3683622e+02 </wgt>
<wgt id='141'> +5.0424493e+02 </wgt>
<wgt id='142'> +5.0852346e+02 </wgt>
<wgt id='143'> +4.9982778e+02 </wgt>
<wgt id='144'> +5.0395557e+02 </wgt>
<wgt id='145'> +5.0600390e+02 </wgt>
</rwgt>
</event>
<event>
 4      1 +5.0481800e+02 2.15090800e+02 7.54677100e-03 1.13759700e-01
       21 -1    0    0  501  502 +0.0000000000e+00 +0.0000000000e+00 +2.4813833565e+02 2.4813833565e+02 0.0000000000e+00 0.0000e+00 1.0000e+00
       21 -1    0    0  502  503 -0.0000000000e+00 -0.0000000000e+00 -2.0442067324e+02 2.0442067324e+02 0.0000000000e+00 0.0000e+00 1.0000e+00
        6  1    1    2  501    0 +1.2174956677e+02 +3.8885889945e+01 +8.8959896158e+01 2.3276153585e+02 1.7300000000e+02 0.0000e+00 1.0000e+00
       -6  1    1    2    0  503 -1.2174956677e+02 -3.8885889945e+01 -4.5242233749e+01 2.1979747305e+02 1.7300000000e+02 0.0000e+00 1.0000e+00
<mgrwt>
<rscale>  2 0.21509084E+03</rscale>
<asrwt>0</asrwt>
<pdfrwt beam="1">  1       21 0.38175128E-01 0.21509084E+03</pdfrwt>
<pdfrwt beam="2">  1       21 0.31449335E-01 0.21509084E+03</pdfrwt>
<totfact> 0.63659363E+04</totfact>
</mgrwt>
<rwgt>
<wgt id='1'> +6.4746907e+02 </wgt>
<wgt id='2'> +5.1860432e+02 </wgt>
<wgt id='3'> +5.0481800e+02 </wgt>
<wgt id='4'> +6.4746907e+02 </wgt>
<wgt id='5'> +4.9681291e+02 </wgt>
<wgt id='6'> +6.1578265e+02 </wgt>
<wgt id='7'> +4.8615848e+02 </wgt>
<wgt id='8'> +4.7319982e+02 </wgt>
<wgt id='9'> +6.1578265e+02 </wgt>
<wgt id='10'> +4.6571663e+02 </wgt>
<wgt id='11'> +5.7721445e+02 </wgt>
<wgt id='12'> +4.5566524e+02 </wgt>
<wgt id='13'> +4.4352924e+02 </wgt>
<wgt id='14'> +5.7721445e+02 </wgt>
<wgt id='15'> +4.3652334e+02 </wgt>
<wgt id='16'> +5.3079449e+02 </wgt>
<wgt id='17'> +4.3698693e+02 </wgt>
<wgt id='18'> +4.2605205e+02 </wgt>
<wgt id='19'> +5.3079449e+02 </wgt>
<wgt id='20'> +4.1965720e+02 </wgt>
<wgt id='21'> +4.0964738e+02 </wgt>
<wgt id='22'> +3.9936720e+02 </wgt>
<wgt id='23'> +5.0481800e+02 </wgt>
<wgt id='24'> +3.9339022e+02 </wgt>
<wgt id='25'> +4.7319982e+02 </wgt>
<wgt id='26'> +3.8395313e+02 </wgt>
<wgt id='27'> +3.7432607e+02 </wgt>
<wgt id='28'> +4.7319982e+02 </wgt>
<wgt id='29'> +3.6873069e+02 </wgt>
<wgt id='30'> +4.4797547e+02 </wgt>
<wgt id='31'> +3.7317857e+02 </wgt>
<wgt id='32'> +3.6434279e+02 </wgt>
<wgt id='33'> +4.4797547e+02 </wgt>
<wgt id='34'> +3.5916304e+02 </wgt>
<wgt id='35'> +4.2605205e+02 </wgt>
<wgt id='36'> +3.4983111e+02 </wgt>
<wgt id='37'> +3.4152297e+02 </wgt>
<wgt id='38'> +4.2605205e+02 </wgt>
<wgt id='39'> +3.3668247e+02 </wgt>
<wgt id='40'> +3.9936720e+02 </wgt>
<wgt id='41'> +3.2788871e+02 </wgt>
<wgt id='42'> +3.2010879e+02 </wgt>
<wgt id='43'> +3.9936720e+02 </wgt>
<wgt id='44'> +3.1557764e+02 </wgt>
<wgt id='45'> +5.0481800e+02 </wgt>
<wgt id='46'> +5.0448178e+02 </wgt>
<wgt id='47'> +5.2323178e+02 </wgt>
<wgt id='48'> +5.0636675e+02 </wgt>
<wgt id='49'> +5.0405757e+02 </wgt>
<wgt id='50'> +5.8921019e+02 </wgt>
<wgt id='51'> +4.9519026e+02 </wgt>
<wgt id='52'> +5.0155020e+02 </wgt>
<wgt id='53'> +5.1168723e+02 </wgt>
<wgt id='54'> +5.0761608e+02 </wgt>
<wgt id='55'> +4.4960997e+02 </wgt>
<wgt id='56'> +4.7023890e+02 </wgt>
<wgt id='57'> +4.9028914e+02 </wgt>
<wgt id='58'> +5.0846540e+02 </wgt>
<wgt id='59'> +4.9572086e+02 </wgt>
<wgt id='60'> +4.8280785e+02 </wgt>
<wgt id='61'> +4.9432747e+02 </wgt>
<wgt id='62'> +4.9839864e+02 </wgt>
<wgt id='63'> +5.0530787e+02 </wgt>
<wgt id='64'> +5.0052323e+02 </wgt>
<wgt id='65'> +5.9771292e+02 </wgt>
<wgt id='66'> +4.9286417e+02 </wgt>
<wgt id='67'> +5.0945363e+02 </wgt>
<wgt id='68'> +5.3998681e+02 </wgt>
<wgt id='69'> +4.9250094e+02 </wgt>
<wgt id='70'> +4.9637839e+02 </wgt>
<wgt id='71'> +5.1439387e+02 </wgt>
<wgt id='72'> +4.9008426e+02 </wgt>
<wgt id='73'> +4.9837544e+02 </wgt>
<wgt id='74'> +5.1929525e+02 </wgt>
<wgt id='75'> +5.1627019e+02 </wgt>
<wgt id='76'> +4.8944787e+02 </wgt>
<wgt id='77'> +4.8574262e+02 </wgt>
<wgt id='78'> +5.0630103e+02 </wgt>
<wgt id='79'> +4.8347865e+02 </wgt>
<wgt id='80'> +5.0090904e+02 </wgt>
<wgt id='81'> +4.9549293e+02 </wgt>
<wgt id='82'> +5.1959634e+02 </wgt>
<wgt id='83'> +5.1586118e+02 </wgt>
<wgt id='84'> +5.5548761e+02 </wgt>
<wgt id='85'> +5.3228729e+02 </wgt>
<wgt id='86'> +5.0151761e+02 </wgt>
<wgt id='87'> +5.0460924e+02 </wgt>
<wgt id='88'> +5.1426301e+02 </wgt>
<wgt id='89'> +5.1675434e+02 </wgt>
<wgt id='90'> +5.0986732e+02 </wgt>
<wgt id='91'> +5.3816296e+02 </wgt>
<wgt id='92'> +4.6390929e+02 </wgt>
<wgt id='93'> +4.9591748e+02 </wgt>
<wgt id='94'> +5.0245042e+02 </wgt>
<wgt id='95'> +4.8318426e+02 </wgt>
<wgt id='96'> +5.4626115e+02 </wgt>
<wgt id='97'> +5.1323255e+02 </wgt>
<wgt id='98'> +4.8096586e+02 </wgt>
<wgt id='99'> +4.9051299e+02 </wgt>
<wgt id='100'> +5.0199131e+02 </wgt>
<wgt id='101'> +5.2883667e+02 </wgt>
<wgt id='102'> +4.8896890e+02 </wgt>
<wgt id='103'> +5.4831684e+02 </wgt>
<wgt id='104'> +5.0409279e+02 </wgt>
<wgt id='105'> +5.2460797e+02 </wgt>
<wgt id='106'> +4.6427230e+02 </wgt>
<wgt id='107'> +4.9930102e+02 </wgt>
<wgt id='108'> +4.5275678e+02 </wgt>
<wgt id='109'> +4.7407595e+02 </wgt>
<wgt id='110'> +5.0573110e+02 </wgt>
<wgt id='111'> +4.9156618e+02 </wgt>
<wgt id='112'> +4.8224081e+02 </wgt>
<wgt id='113'> +4.6322882e+02 </wgt>
<wgt id='114'> +5.0414131e+02 </wgt>
<wgt id='115'> +5.0789015e+02 </wgt>
<wgt id='116'> +5.0376256e+02 </wgt>
<wgt id='117'> +5.1248966e+02 </wgt>
<wgt id='118'> +5.1700131e+02 </wgt>
<wgt id='119'> +4.8476809e+02 </wgt>
<wgt id='120'> +5.0433519e+02 </wgt>
<wgt id='121'> +4.9005280e+02 </wgt>
<wgt id='122'> +4.9811744e+02 </wgt>
<wgt id='123'> +5.1179820e+02 </wgt>
<wgt id='124'> +5.3796200e+02 </wgt>
<wgt id='125'> +5.3912257e+02 </wgt>
<wgt id='126'> +5.2470966e+02 </wgt>
<wgt id='127'> +5.1982899e+02 </wgt>
<wgt id='128'> +4.6977957e+02 </wgt>
<wgt id='129'> +5.7163068e+02 </wgt>
<wgt id='130'> +5.0977413e+02 </wgt>
<wgt id='131'> +5.4137733e+02 </wgt>
<wgt id='132'> +4.9715610e+02 </wgt>
<wgt id='133'> +5.0054475e+02 </wgt>
<wgt id='134'> +4.7382253e+02 </wgt>
<wgt id='135'> +5.1797337e+02 </wgt>
<wgt id='136'> +4.8165249e+02 </wgt>
<wgt id='137'> +4.7533995e+02 </wgt>
<wgt id='138'> +4.5905525e+02 </wgt>
<wgt id='139'> +5.1408963e+02 </wgt>
<wgt id='140'> +5.3757803e+02 </wgt>
<wgt id='141'> +5.0389050e+02 </wgt>
<wgt id='142'> +5.0984941e+02 </wgt>
<wgt id='143'> +4.9923528e+02 </wgt>
<wgt id='144'> +5.0453783e+02 </wgt>
<wgt id='145'> +5.0603347e+02 </wgt>
</rwgt>
</event>
<event>
 4      1 +5.0481800e+02 2.39430500e+02 7.54677100e-03 1.12017300e-01
       21 -1    0    0  503  502 +0.0000000000e+00 +0.0000000000e+00 +1.7466728479e+02 1.7466728479e+02 0.0000000000e+00 0.0000e+00 1.0000e+00
       21 -1    0    0  501  503 -0.0000000000e+00 -0.0000000000e+00 -3.9594785319e+02 3.9594785319e+02 0.0000000000e+00 0.0000e+00 1.0000e+00
        6  1    1    2  501    0 +6.3320568624e+01 -1.5293296521e+02 -2.2865070230e+02 3.3107118558e+02 1.7300000000e+02 0.0000e+00 1.0000e+00
       -6  1    1    2    0  502 -6.3320568624e+01 +1.5293296521e+02 +7.3701338981e+00 2.3954395240e+02 1.7300000000e+02 0.0000e+00 1.0000e+00
<mgrwt>
<rscale>  2 0.23943055E+03</rscale>
<asrwt>0</asrwt>
<pdfrwt beam="1">  1       21 0.26871890E-01 0.23943055E+03</pdfrwt>
<pdfrwt beam="2">  1       21 0.60915054E-01 0.23943055E+03</pdfrwt>
<totfact> 0.32308327E+04</totfact>
</mgrwt>
<rwgt>
<wgt id='1'> +6.5388579e+02 </wgt>
<wgt id='2'> +5.2342302e+02 </wgt>
<wgt id='3'> +5.0481800e+02 </wgt>
<wgt id='4'> +6.5388579e+02 </wgt>
<wgt id='5'> +4.8804979e+02 </wgt>
<wgt id='6'> +6.1222727e+02 </wgt>
<wgt id='7'> +4.8520715e+02 </wgt>
<wgt id='8'> +4.6804573e+02 </wgt>
<wgt id='9'> +6.1222727e+02 </wgt>
<wgt id='10'> +4.5254017e+02 </wgt>
<wgt id='11'> +5.6763102e+02 </wgt>
<wgt id='12'> +4.5022688e+02 </wgt>
<wgt id='13'> +4.3438199e+02 </wgt>
<wgt id='14'> +5.6763102e+02 </wgt>
<wgt id='15'> +4.2006782e+02 </wgt>
<wgt id='16'> +5.3916794e+02 </wgt>
<wgt id='17'> +4.4181676e+02 </wgt>
<wgt id='18'> +4.2694146e+02 </wgt>
<wgt id='19'> +5.3916794e+02 </wgt>
<wgt id='20'> +4.1353359e+02 </wgt>
<wgt id='21'> +4.0955908e+02 </wgt>
<wgt id='22'> +3.9584192e+02 </wgt>
<wgt id='23'> +5.0481800e+02 </wgt>
<wgt id='24'> +3.8344563e+02 </wgt>
<wgt id='25'> +4.6804573e+02 </wgt>
<wgt id='26'> +3.8003254e+02 </wgt>
<wgt id='27'> +3.6737137e+02 </wgt>
<wgt id='28'> +4.6804573e+02 </wgt>
<wgt id='29'> +3.5593121e+02 </wgt>
<wgt id='30'> +4.5599235e+02 </wgt>
<wgt id='31'> +3.7787427e+02 </wgt>
<wgt id='32'> +3.6578555e+02 </wgt>
<wgt id='33'> +4.5599235e+02 </wgt>
<wgt id='34'> +3.5486729e+02 </wgt>
<wgt id='35'> +4.2694146e+02 </wgt>
<wgt id='36'> +3.5028512e+02 </wgt>
<wgt id='37'> +3.3914077e+02 </wgt>
<wgt id='38'> +4.2694146e+02 </wgt>
<wgt id='39'> +3.2904779e+02 </wgt>
<wgt id='40'> +3.9584192e+02 </wgt>
<wgt id='41'> +3.2503185e+02 </wgt>
<wgt id='42'> +3.1474839e+02 </wgt>
<wgt id='43'> +3.9584192e+02 </wgt>
<wgt id='44'> +3.0543673e+02 </wgt>
<wgt id='45'> +5.0481800e+02 </wgt>
<wgt id='46'> +5.1037928e+02 </wgt>
<wgt id='47'> +5.2499962e+02 </wgt>
<wgt id='48'> +5.0933084e+02 </wgt>
<wgt id='49'> +5.0237699e+02 </wgt>
<wgt id='50'> +6.0206054e+02 </wgt>
<wgt id='51'> +4.9477811e+02 </wgt>
<wgt id='52'> +5.0301658e+02 </wgt>
<wgt id='53'> +5.0606819e+02 </wgt>
<wgt id='54'> +5.0845221e+02 </wgt>
<wgt id='55'> +4.5423596e+02 </wgt>
<wgt id='56'> +4.6418393e+02 </wgt>
<wgt id='57'> +4.9334194e+02 </wgt>
<wgt id='58'> +5.0224828e+02 </wgt>
<wgt id='59'> +5.0514726e+02 </wgt>
<wgt id='60'> +4.9058231e+02 </wgt>
<wgt id='61'> +4.7676731e+02 </wgt>
<wgt id='62'> +4.9858705e+02 </wgt>
<wgt id='63'> +5.0547745e+02 </wgt>
<wgt id='64'> +4.9558166e+02 </wgt>
<wgt id='65'> +5.9019454e+02 </wgt>
<wgt id='66'> +4.9433510e+02 </wgt>
<wgt id='67'> +5.0913159e+02 </wgt>
<wgt id='68'> +5.4786696e+02 </wgt>
<wgt id='69'> +4.9951071e+02 </wgt>
<wgt id='70'> +4.9600085e+02 </wgt>
<wgt id='71'> +5.1348505e+02 </wgt>
<wgt id='72'> +4.8242926e+02 </wgt>
<wgt id='73'> +4.9474972e+02 </wgt>
<wgt id='74'> +5.2622479e+02 </wgt>
<wgt id='75'> +5.1736524e+02 </wgt>
<wgt id='76'> +4.9023205e+02 </wgt>
<wgt id='77'> +4.8995674e+02 </wgt>
<wgt id='78'> +4.9741898e+02 </wgt>
<wgt id='79'> +4.8887133e+02 </wgt>
<wgt id='80'> +4.9746802e+02 </wgt>
<wgt id='81'> +4.9394636e+02 </wgt>
<wgt id='82'> +5.1309096e+02 </wgt>
<wgt id='83'> +5.1695912e+02 </wgt>
<wgt id='84'> +5.5504607e+02 </wgt>
<wgt id='85'> +5.2865441e+02 </wgt>
<wgt id='86'> +5.0504093e+02 </wgt>
<wgt id='87'> +5.0670687e+02 </wgt>
<wgt id='88'> +5.1404848e+02 </wgt>
<wgt id='89'> +5.1753098e+02 </wgt>
<wgt id='90'> +5.1234995e+02 </wgt>
<wgt id='91'> +5.3298691e+02 </wgt>
<wgt id='92'> +4.5670667e+02 </wgt>
<wgt id='93'> +4.9932633e+02 </wgt>
<wgt id='94'> +4.9755318e+02 </wgt>
<wgt id='95'> +4.8437413e+02 </wgt>
<wgt id='96'> +5.5022153e+02 </wgt>
<wgt id='97'> +5.0825669e+02 </wgt>
<wgt id='98'> +4.8444189e+02 </wgt>
<wgt id='99'> +4.8662298e+02 </wgt>
<wgt id='100'> +4.8953806e+02 </wgt>
<wgt id='101'> +5.4211840e+02 </wgt>
<wgt id='102'> +5.0138277e+02 </wgt>
<wgt id='103'> +5.5055480e+02 </wgt>
<wgt id='104'> +5.0720802e+02 </wgt>
<wgt id='105'> +5.2118809e+02 </wgt>
<wgt id='106'> +4.5742970e+02 </wgt>
<wgt id='107'> +4.8936085e+02 </wgt>
<wgt id='108'> +4.4530539e+02 </wgt>
<wgt id='109'> +4.7040771e+02 </wgt>
<wgt id='110'> +5.0330340e+02 </wgt>
<wgt id='111'> +4.8921697e+02 </wgt>
<wgt id='112'> +4.7755203e+02 </wgt>
<wgt id='113'> +4.6118990e+02 </wgt>
<wgt id='114'> +4.9555136e+02 </wgt>
<wgt id='115'> +4.9519163e+02 </wgt>
<wgt id='116'> +5.1302946e+02 </wgt>
<wgt id='117'> +5.0739777e+02 </wgt>
<wgt id='118'> +5.2448874e+02 </wgt>
<wgt id='119'> +4.8434088e+02 </wgt>
<wgt id='120'> +4.9705484e+02 </wgt>
<wgt id='121'> +4.8895958e+02 </wgt>
<wgt id='122'> +4.9765645e+02 </wgt>
<wgt id='123'> +5.1245351e+02 </wgt>
<wgt id='124'> +5.4846385e+02 </wgt>
<wgt id='125'> +5.4967378e+02 </wgt>
<wgt id='126'> +5.2615980e+02 </wgt>
<wgt id='127'> +5.2140575e+02 </wgt>
<wgt id='128'> +4.6410112e+02 </wgt>
<wgt id='129'> +5.7239454e+02 </wgt>
<wgt id='130'> +5.0883210e+02 </wgt>
<wgt id='131'> +5.3792102e+02 </wgt>
<wgt id='132'> +5.0772376e+02 </wgt>
<wgt id='133'> +5.0820152e+02 </wgt>
<wgt id='134'> +4.7816327e+02 </wgt>
<wgt id='135'> +5.1666952e+02 </wgt>
<wgt id='136'> +4.9240329e+02 </wgt>
<wgt id='137'> +4.7877067e+02 </wgt>
<wgt id='138'> +4.6688967e+02 </wgt>
<wgt id='139'> +5.1737282e+02 </wgt>
<wgt id='140'> +5.3147053e+02 </wgt>
<wgt id='141'> +5.0696725e+02 </wgt>
<wgt id='142'> +4.9756245e+02 </wgt>
<wgt id='143'> +5.0464341e+02 </wgt>
<wgt id='144'> +4.9970913e+02 </wgt>
<wgt id='145'> +5.0555333e+02 </wgt>
</rwgt>
</event>
<event>
 4      1 +5.0481800e+02 1.87562000e+02 7.54677100e-03 1.16067900e-01
       21 -1    0    0  503  502 +0.0000000000e+00 +0.0000000000e+00 +5.3574741817e+01 5.3574741817e+01 0.0000000000e+00 0.0000e+00 1.0000e+00
       21 -1    0    0  501  503 -0.0000000000e+00 -0.0000000000e+00 -7.0246826866e+02 7.0246826866e+02 0.0000000000e+00 0.0000e+00 1.0000e+00
        6  1    1    2  501    0 -2.4283148474e+01 -6.8270256656e+01 -4.2099712124e+02 4.6088835452e+02 1.7300000000e+02 0.0000e+00 1.0000e+00
       -6  1    1    2    0  502 +2.4283148474e+01 +6.8270256656e+01 -2.2789640560e+02 2.9515465595e+02 1.7300000000e+02 0.0000e+00 1.0000e+00
<mgrwt>
<rscale>  2 0.18756199E+03</rscale>
<asrwt>0</asrwt>
<pdfrwt beam="1">  1       21 0.82422684E-02 0.18756199E+03</pdfrwt>
<pdfrwt beam="2">  1       21 0.10807204E+00 0.18756199E+03</pdfrwt>
<totfact> 0.77830121E+04</totfact>
</mgrwt>
<rwgt>
<wgt id='1'> +6.5051439e+02 </wgt>
<wgt id='2'> +6.7882301e+02 </wgt>
<wgt id='3'> +5.0481800e+02 </wgt>
<wgt id='4'> +6.5051439e+02 </wgt>
<wgt id='5'> +4.9881703e+02 </wgt>
<wgt id='6'> +6.2025441e+02 </wgt>
<wgt id='7'> +6.4894532e+02 </wgt>
<wgt id='8'> +4.7245097e+02 </wgt>
<wgt id='9'> +6.2025441e+02 </wgt>
<wgt id='10'> +4.6669937e+02 </wgt>
<wgt id='11'> +5.8048603e+02 </wgt>
<wgt id='12'> +6.0825359e+02 </wgt>
<wgt id='13'> +4.4176461e+02 </wgt>
<wgt id='14'> +5.8048604e+02 </wgt>
<wgt id='15'> +4.3638438e+02 </wgt>
<wgt id='16'> +5.2944625e+02 </wgt>
<wgt id='17'> +5.4965989e+02 </wgt>
<wgt id='18'> +4.2468260e+02 </wgt>
<wgt id='19'> +5.2944626e+02 </wgt>
<wgt id='20'> +4.2003541e+02 </wgt>
<wgt id='21'> +5.2546718e+02 </wgt>
<wgt id='22'> +3.9745355e+02 </wgt>
<wgt id='23'> +5.0481800e+02 </wgt>
<wgt id='24'> +3.9299031e+02 </wgt>
<wgt id='25'> +4.7245097e+02 </wgt>
<wgt id='26'> +4.9251807e+02 </wgt>
<wgt id='27'> +3.7163838e+02 </wgt>
<wgt id='28'> +4.7245097e+02 </wgt>
<wgt id='29'> +3.6746318e+02 </wgt>
<wgt id='30'> +4.4540133e+02 </wgt>
<wgt id='31'> +4.6069338e+02 </wgt>
<wgt id='32'> +3.6227837e+02 </wgt>
<wgt id='33'> +4.4540134e+02 </wgt>
<wgt id='34'> +3.5853330e+02 </wgt>
<wgt id='35'> +4.2468260e+02 </wgt>
<wgt id='36'> +4.4041644e+02 </wgt>
<wgt id='37'> +3.3905045e+02 </wgt>
<wgt id='38'> +4.2468260e+02 </wgt>
<wgt id='39'> +3.3544818e+02 </wgt>
<wgt id='40'> +3.9745355e+02 </wgt>
<wgt id='41'> +4.1280039e+02 </wgt>
<wgt id='42'> +3.1702864e+02 </wgt>
<wgt id='43'> +3.9745355e+02 </wgt>
<wgt id='44'> +3.1365876e+02 </wgt>
<wgt id='45'> +5.0481800e+02 </wgt>
<wgt id='46'> +5.1481781e+02 </wgt>
<wgt id='47'> +5.1684535e+02 </wgt>
<wgt id='48'> +5.0631672e+02 </wgt>
<wgt id='49'> +4.9448154e+02 </wgt>
<wgt id='50'> +5.8956417e+02 </wgt>
<wgt id='51'> +4.9116299e+02 </wgt>
<wgt id='52'> +5.0243722e+02 </wgt>
<wgt id='53'> +4.9807423e+02 </wgt>
<wgt id='54'> +5.1508538e+02 </wgt>
<wgt id='55'> +4.8972414e+02 </wgt>
<wgt id='56'> +4.6606972e+02 </wgt>
<wgt id='57'> +5.1131101e+02 </wgt>
<wgt id='58'> +4.9340599e+02 </wgt>
<wgt id='59'> +5.2667425e+02 </wgt>
<wgt id='60'> +5.0673705e+02 </wgt>
<wgt id='61'> +4.4504810e+02 </wgt>
<wgt id='62'> +4.9278829e+02 </wgt>
<wgt id='63'> +5.0932889e+02 </wgt>
<wgt id='64'> +4.9822968e+02 </wgt>
<wgt id='65'> +5.4422719e+02 </wgt>
<wgt id='66'> +4.9724683e+02 </wgt>
<wgt id='67'> +5.0727446e+02 </wgt>
<wgt id='68'> +5.5677520e+02 </wgt>
<wgt id='69'> +5.0388629e+02 </wgt>
<wgt id='70'> +5.0219553e+02 </wgt>
<wgt id='71'> +5.0601108e+02 </wgt>
<wgt id='72'> +4.8932677e+02 </wgt>
<wgt id='73'> +4.8756787e+02 </wgt>
<wgt id='74'> +5.3478450e+02 </wgt>
<wgt id='75'> +5.1652573e+02 </wgt>
<wgt id='76'> +5.0206463e+02 </wgt>
<wgt id='77'> +4.9478806e+02 </wgt>
<wgt id='78'> +4.7946236e+02 </wgt>
<wgt id='79'> +5.0322047e+02 </wgt>
<wgt id='80'> +4.8835332e+02 </wgt>
<wgt id='81'> +4.9855845e+02 </wgt>
<wgt id='82'> +4.9504241e+02 </wgt>
<wgt id='83'> +5.0642898e+02 </wgt>
<wgt id='84'> +5.3234834e+02 </wgt>
<wgt id='85'> +5.0710195e+02 </wgt>
<wgt id='86'> +5.0768224e+02 </wgt>
<wgt id='87'> +5.0739718e+02 </wgt>
<wgt id='88'> +5.0300173e+02 </wgt>
<wgt id='89'> +5.0422556e+02 </wgt>
<wgt id='90'> +5.1147312e+02 </wgt>
<wgt id='91'> +5.0860828e+02 </wgt>
<wgt id='92'> +4.6819860e+02 </wgt>
<wgt id='93'> +5.0290342e+02 </wgt>
<wgt id='94'> +4.8951180e+02 </wgt>
<wgt id='95'> +5.0477414e+02 </wgt>
<wgt id='96'> +5.3335207e+02 </wgt>
<wgt id='97'> +4.9564743e+02 </wgt>
<wgt id='98'> +4.9847943e+02 </wgt>
<wgt id='99'> +4.7583038e+02 </wgt>
<wgt id='100'> +4.6625323e+02 </wgt>
<wgt id='101'> +5.5621778e+02 </wgt>
<wgt id='102'> +5.2197287e+02 </wgt>
<wgt id='103'> +5.3469087e+02 </wgt>
<wgt id='104'> +5.0991678e+02 </wgt>
<wgt id='105'> +5.2147565e+02 </wgt>
<wgt id='106'> +4.6842955e+02 </wgt>
<wgt id='107'> +4.8432316e+02 </wgt>
<wgt id='108'> +4.5332993e+02 </wgt>
<wgt id='109'> +4.8191309e+02 </wgt>
<wgt id='110'> +4.9884983e+02 </wgt>
<wgt id='111'> +4.9290084e+02 </wgt>
<wgt id='112'> +4.8527383e+02 </wgt>
<wgt id='113'> +4.7689461e+02 </wgt>
<wgt id='114'> +4.9977771e+02 </wgt>
<wgt id='115'> +4.7700645e+02 </wgt>
<wgt id='116'> +5.2221190e+02 </wgt>
<wgt id='117'> +4.9776704e+02 </wgt>
<wgt id='118'> +5.2613697e+02 </wgt>
<wgt id='119'> +5.0081737e+02 </wgt>
<wgt id='120'> +4.9457948e+02 </wgt>
<wgt id='121'> +4.9945390e+02 </wgt>
<wgt id='122'> +4.9975717e+02 </wgt>
<wgt id='123'> +5.0400611e+02 </wgt>
<wgt id='124'> +5.5521271e+02 </wgt>
<wgt id='125'> +5.6485601e+02 </wgt>
<wgt id='126'> +5.1544687e+02 </wgt>
<wgt id='127'> +5.1324474e+02 </wgt>
<wgt id='128'> +4.6247769e+02 </wgt>
<wgt id='129'> +5.5668335e+02 </wgt>
<wgt id='130'> +4.9599472e+02 </wgt>
<wgt id='131'> +5.1858864e+02 </wgt>
<wgt id='132'> +5.3342493e+02 </wgt>
<wgt id='133'> +5.2049595e+02 </wgt>
<wgt id='134'> +4.9679177e+02 </wgt>
<wgt id='135'> +5.0846891e+02 </wgt>
<wgt id='136'> +5.3009527e+02 </wgt>
<wgt id='137'> +4.8690074e+02 </wgt>
<wgt id='138'> +4.7646334e+02 </wgt>
<wgt id='139'> +5.1944163e+02 </wgt>
<wgt id='140'> +5.1563207e+02 </wgt>
<wgt id='141'> +5.1669429e+02 </wgt>
<wgt id='142'> +4.6883688e+02 </wgt>
<wgt id='143'> +5.1629675e+02 </wgt>
<wgt id='144'> +4.9336873e+02 </wgt>
<wgt id='145'> +4.9689608e+02 </wgt>
</rwgt>
</event>
<event>
 4      1 +5.0481800e+02 1.89617900e+02 7.54677100e-03 1.15880600e-01
       21 -1    0    0  503  502 +0.0000000000e+00 +0.0000000000e+00 +3.4401655284e+02 3.4401655284e+02 0.0000000000e+00 0.0000e+00 -1.0000e+00
       21 -1    0    0  501  503 -0.0000000000e+00 -0.0000000000e+00 -1.2046130665e+02 1.2046130665e+02 0.0000000000e+00 0.0000e+00 -1.0000e+00
        6  1    1    2  501    0 +6.5363801707e+01 +4.1874988098e+01 +2.7281016811e+01 1.9157033977e+02 1.7300000000e+02 0.0000e+00 -1.0000e+00
       -6  1    1    2    0  502 -6.5363801707e+01 -4.1874988098e+01 +1.9627422938e+02 2.7290751972e+02 1.7300000000e+02 0.0000e+00 -1.0000e+00
<mgrwt>
<rscale>  2 0.18961788E+03</rscale>
<asrwt>0</asrwt>
<pdfrwt beam="1">  1       21 0.52925623E-01 0.18961788E+03</pdfrwt>
<pdfrwt beam="2">  1       21 0.18532509E-01 0.18961788E+03</pdfrwt>
<totfact> 0.90089880E+04</totfact>
</mgrwt>
<rwgt>
<wgt id='1'> +6.4564343e+02 </wgt>
<wgt id='2'> +5.6036878e+02 </wgt>
<wgt id='3'> +5.0481800e+02 </wgt>
<wgt id='4'> +6.4564343e+02 </wgt>
<wgt id='5'> +4.9266298e+02 </wgt>
<wgt id='6'> +6.1994096e+02 </wgt>
<wgt id='7'> +5.3141973e+02 </wgt>
<wgt id='8'> +4.7575901e+02 </wgt>
<wgt id='9'> +6.1994096e+02 </wgt>
<wgt id='10'> +4.6409926e+02 </wgt>
<wgt id='11'> +5.8425512e+02 </wgt>
<wgt id='12'> +5.0042661e+02 </wgt>
<wgt id='13'> +4.4789059e+02 </wgt>
<wgt id='14'> +5.8425512e+02 </wgt>
<wgt id='15'> +4.3689718e+02 </wgt>
<wgt id='16'> +5.2574752e+02 </wgt>
<wgt id='17'> +4.6588160e+02 </wgt>
<wgt id='18'> +4.2481668e+02 </wgt>
<wgt id='19'> +5.2574752e+02 </wgt>
<wgt id='20'> +4.1533679e+02 </wgt>
<wgt id='21'> +4.4181383e+02 </wgt>
<wgt id='22'> +4.0036283e+02 </wgt>
<wgt id='23'> +5.0481800e+02 </wgt>
<wgt id='24'> +3.9125630e+02 </wgt>
<wgt id='25'> +4.7575901e+02 </wgt>
<wgt id='26'> +4.1604664e+02 </wgt>
<wgt id='27'> +3.7691087e+02 </wgt>
<wgt id='28'> +4.7575901e+02 </wgt>
<wgt id='29'> +3.6832375e+02 </wgt>
<wgt id='30'> +4.4242939e+02 </wgt>
<wgt id='31'> +3.9526914e+02 </wgt>
<wgt id='32'> +3.6246450e+02 </wgt>
<wgt id='33'> +4.4242938e+02 </wgt>
<wgt id='34'> +3.5483119e+02 </wgt>
<wgt id='35'> +4.2481668e+02 </wgt>
<wgt id='36'> +3.7484926e+02 </wgt>
<wgt id='37'> +3.4159985e+02 </wgt>
<wgt id='38'> +4.2481668e+02 </wgt>
<wgt id='39'> +3.3425871e+02 </wgt>
<wgt id='40'> +4.0036283e+02 </wgt>
<wgt id='41'> +3.5298754e+02 </wgt>
<wgt id='42'> +3.2159003e+02 </wgt>
<wgt id='43'> +4.0036283e+02 </wgt>
<wgt id='44'> +3.1466693e+02 </wgt>
<wgt id='45'> +5.0481800e+02 </wgt>
<wgt id='46'> +5.0447132e+02 </wgt>
<wgt id='47'> +5.2115715e+02 </wgt>
<wgt id='48'> +5.0553489e+02 </wgt>
<wgt id='49'> +5.0350259e+02 </wgt>
<wgt id='50'> +5.8430991e+02 </wgt>
<wgt id='51'> +4.9512014e+02 </wgt>
<wgt id='52'> +5.0229513e+02 </wgt>
<wgt id='53'> +5.1020410e+02 </wgt>
<wgt id='54'> +5.0778882e+02 </wgt>
<wgt id='55'> +4.5475978e+02 </wgt>
<wgt id='56'> +4.7080688e+02 </wgt>
<wgt id='57'> +4.9306199e+02 </wgt>
<wgt id='58'> +5.0877421e+02 </wgt>
<wgt id='59'> +4.9879971e+02 </wgt>
<wgt id='60'> +4.8570595e+02 </wgt>
<wgt id='61'> +4.9048757e+02 </wgt>
<wgt id='62'> +4.9791247e+02 </wgt>
<wgt id='63'> +5.0523228e+02 </wgt>
<wgt id='64'> +5.0064640e+02 </wgt>
<wgt id='65'> +5.9035160e+02 </wgt>
<wgt id='66'> +4.9289329e+02 </wgt>
<wgt id='67'> +5.0921680e+02 </wgt>
<wgt id='68'> +5.3986415e+02 </wgt>
<wgt id='69'> +4.9120647e+02 </wgt>
<wgt id='70'> +4.9694502e+02 </wgt>
<wgt id='71'> +5.1427986e+02 </wgt>
<wgt id='72'> +4.9375055e+02 </wgt>
<wgt id='73'> +4.9856649e+02 </wgt>
<wgt id='74'> +5.1911179e+02 </wgt>
<wgt id='75'> +5.1511518e+02 </wgt>
<wgt id='76'> +4.9154684e+02 </wgt>
<wgt id='77'> +4.8683999e+02 </wgt>
<wgt id='78'> +5.0471832e+02 </wgt>
<wgt id='79'> +4.8500729e+02 </wgt>
<wgt id='80'> +5.0054166e+02 </wgt>
<wgt id='81'> +4.9621565e+02 </wgt>
<wgt id='82'> +5.1722781e+02 </wgt>
<wgt id='83'> +5.1362465e+02 </wgt>
<wgt id='84'> +5.5148882e+02 </wgt>
<wgt id='85'> +5.2927947e+02 </wgt>
<wgt id='86'> +5.0093647e+02 </wgt>
<wgt id='87'> +5.0472371e+02 </wgt>
<wgt id='88'> +5.1205656e+02 </wgt>
<wgt id='89'> +5.1598182e+02 </wgt>
<wgt id='90'> +5.1082802e+02 </wgt>
<wgt id='91'> +5.3552726e+02 </wgt>
<wgt id='92'> +4.6802891e+02 </wgt>
<wgt id='93'> +4.9602463e+02 </wgt>
<wgt id='94'> +5.0259668e+02 </wgt>
<wgt id='95'> +4.8646714e+02 </wgt>
<wgt id='96'> +5.4217479e+02 </wgt>
<wgt id='97'> +5.1234946e+02 </wgt>
<wgt id='98'> +4.8254635e+02 </wgt>
<wgt id='99'> +4.9040714e+02 </wgt>
<wgt id='100'> +5.0144195e+02 </wgt>
<wgt id='101'> +5.2925491e+02 </wgt>
<wgt id='102'> +4.9032561e+02 </wgt>
<wgt id='103'> +5.4619581e+02 </wgt>
<wgt id='104'> +5.0317843e+02 </wgt>
<wgt id='105'> +5.2536154e+02 </wgt>
<wgt id='106'> +4.6714756e+02 </wgt>
<wgt id='107'> +4.9965159e+02 </wgt>
<wgt id='108'> +4.5472785e+02 </wgt>
<wgt id='109'> +4.7618430e+02 </wgt>
<wgt id='110'> +5.0618040e+02 </wgt>
<wgt id='111'> +4.9261356e+02 </wgt>
<wgt id='112'> +4.8256321e+02 </wgt>
<wgt id='113'> +4.6549997e+02 </wgt>
<wgt id='114'> +5.0460782e+02 </wgt>
<wgt id='115'> +5.0470138e+02 </wgt>
<wgt id='116'> +5.0341725e+02 </wgt>
<wgt id='117'> +5.1079683e+02 </wgt>
<wgt id='118'> +5.1636065e+02 </wgt>
<wgt id='119'> +4.8680010e+02 </wgt>
<wgt id='120'> +5.0190917e+02 </wgt>
<wgt id='121'> +4.9218781e+02 </wgt>
<wgt id='122'> +4.9882586e+02 </wgt>
<wgt id='123'> +5.1007760e+02 </wgt>
<wgt id='124'> +5.3753746e+02 </wgt>
<wgt id='125'> +5.3909081e+02 </wgt>
<wgt id='126'> +5.2249152e+02 </wgt>
<wgt id='127'> +5.1872078e+02 </wgt>
<wgt id='128'> +4.6907163e+02 </wgt>
<wgt id='129'> +5.6951959e+02 </wgt>
<wgt id='130'> +5.0694910e+02 </wgt>
<wgt id='131'> +5.3920145e+02 </wgt>
<wgt id='132'> +5.0130466e+02 </wgt>
<wgt id='133'> +5.0119967e+02 </wgt>
<wgt id='134'> +4.7658896e+02 </wgt>
<wgt id='135'> +5.1725871e+02 </wgt>
<wgt id='136'> +4.8650913e+02 </wgt>
<wgt id='137'> +4.7554805e+02 </wgt>
<wgt id='138'> +4.5845935e+02 </wgt>
<wgt id='139'> +5.1415992e+02 </wgt>
<wgt id='140'> +5.3550371e+02 </wgt>
<wgt id='141'> +5.0387892e+02 </wgt>
<wgt id='142'> +5.0764563e+02 </wgt>
<wgt id='143'> +5.0145290e+02 </wgt>
<wgt id='144'> +5.0524627e+02 </wgt>
<wgt id='145'> +5.0584136e+02 </wgt>
</rwgt>
</event>
<event>
 4      1 +5.0481800e+02 2.08433900e+02 7.54677100e-03 1.14281200e-01
       21 -1    0    0  503  502 +0.0000000000e+00 +0.0000000000e+00 +6.1786215326e+02 6.1786215326e+02 0.0000000000e+00 0.0000e+00 -1.0000e+00
       21 -1    0    0  501  503 -0.0000000000e+00 -0.0000000000e+00 -8.9128105732e+01 8.9128105732e+01 0.0000000000e+00 0.0000e+00 -1.0000e+00
        6  1    1    2  501    0 +8.0000466406e+01 +8.4354004943e+01 +1.0195729792e+02 2.3203440127e+02 1.7300000000e+02 0.0000e+00 -1.0000e+00
       -6  1    1    2    0  502 -8.0000466406e+01 -8.4354004943e+01 +4.2677674960e+02 4.7495585771e+02 1.7300000000e+02 0.0000e+00 -1.0000e+00
<mgrwt>
<rscale>  2 0.20843386E+03</rscale>
<asrwt>0</asrwt>
<pdfrwt beam="1">  1       21 0.95055713E-01 0.20843386E+03</pdfrwt>
<pdfrwt beam="2">  1       21 0.13712017E-01 0.20843386E+03</pdfrwt>
<totfact> 0.42356805E+04</totfact>
</mgrwt>
<rwgt>
<wgt id='1'> +6.5476918e+02 </wgt>
<wgt id='2'> +5.7047218e+02 </wgt>
<wgt id='3'> +5.0481800e+02 </wgt>
<wgt id='4'> +6.5476918e+02 </wgt>
<wgt id='5'> +4.8363076e+02 </wgt>
<wgt id='6'> +6.1688056e+02 </wgt>
<wgt id='7'> +5.3175561e+02 </wgt>
<wgt id='8'> +4.6860851e+02 </wgt>
<wgt id='9'> +6.1688056e+02 </wgt>
<wgt id='10'> +4.4901531e+02 </wgt>
<wgt id='11'> +5.7263307e+02 </wgt>
<wgt id='12'> +4.9374476e+02 </wgt>
<wgt id='13'> +4.3524726e+02 </wgt>
<wgt id='14'> +5.7263307e+02 </wgt>
<wgt id='15'> +4.1711263e+02 </wgt>
<wgt id='16'> +5.3582377e+02 </wgt>
<wgt id='17'> +4.7579087e+02 </wgt>
<wgt id='18'> +4.2579301e+02 </wgt>
<wgt id='19'> +5.3582377e+02 </wgt>
<wgt id='20'> +4.0885510e+02 </wgt>
<wgt id='21'> +4.4350009e+02 </wgt>
<wgt id='22'> +3.9525181e+02 </wgt>
<wgt id='23'> +5.0481800e+02 </wgt>
<wgt id='24'> +3.7959166e+02 </wgt>
<wgt id='25'> +4.6860851e+02 </wgt>
<wgt id='26'> +4.1179790e+02 </wgt>
<wgt id='27'> +3.6711298e+02 </wgt>
<wgt id='28'> +4.6860851e+02 </wgt>
<wgt id='29'> +3.5262155e+02 </wgt>
<wgt id='30'> +4.5194508e+02 </wgt>
<wgt id='31'> +4.0416636e+02 </wgt>
<wgt id='32'> +3.6391843e+02 </wgt>
<wgt id='33'> +4.5194509e+02 </wgt>
<wgt id='34'> +3.5016802e+02 </wgt>
<wgt id='35'> +4.2579301e+02 </wgt>
<wgt id='36'> +3.7673657e+02 </wgt>
<wgt id='37'> +3.3781536e+02 </wgt>
<wgt id='38'> +4.2579301e+02 </wgt>
<wgt id='39'> +3.2510504e+02 </wgt>
<wgt id='40'> +3.9525181e+02 </wgt>
<wgt id='41'> +3.4980676e+02 </wgt>
<wgt id='42'> +3.1376555e+02 </wgt>
<wgt id='43'> +3.9525181e+02 </wgt>
<wgt id='44'> +3.0200623e+02 </wgt>
<wgt id='45'> +5.0481800e+02 </wgt>
<wgt id='46'> +5.1393611e+02 </wgt>
<wgt id='47'> +5.2052719e+02 </wgt>
<wgt id='48'> +5.0776691e+02 </wgt>
<wgt id='49'> +4.9686576e+02 </wgt>
<wgt id='50'> +5.9784155e+02 </wgt>
<wgt id='51'> +4.9227415e+02 </wgt>
<wgt id='52'> +5.0293675e+02 </wgt>
<wgt id='53'> +5.0050296e+02 </wgt>
<wgt id='54'> +5.1276963e+02 </wgt>
<wgt id='55'> +4.7648485e+02 </wgt>
<wgt id='56'> +4.6334067e+02 </wgt>
<wgt id='57'> +5.0536436e+02 </wgt>
<wgt id='58'> +4.9546476e+02 </wgt>
<wgt id='59'> +5.2006990e+02 </wgt>
<wgt id='60'> +5.0073778e+02 </wgt>
<wgt id='61'> +4.5114987e+02 </wgt>
<wgt id='62'> +4.9480041e+02 </wgt>
<wgt id='63'> +5.0742336e+02 </wgt>
<wgt id='64'> +4.9630809e+02 </wgt>
<wgt id='65'> +5.6273945e+02 </wgt>
<wgt id='66'> +4.9612266e+02 </wgt>
<wgt id='67'> +5.0794268e+02 </wgt>
<wgt id='68'> +5.5474297e+02 </wgt>
<wgt id='69'> +5.0324149e+02 </wgt>
<wgt id='70'> +4.9934413e+02 </wgt>
<wgt id='71'> +5.0928242e+02 </wgt>
<wgt id='72'> +4.8611895e+02 </wgt>
<wgt id='73'> +4.8932585e+02 </wgt>
<wgt id='74'> +5.3247127e+02 </wgt>
<wgt id='75'> +5.1689438e+02 </wgt>
<wgt id='76'> +4.9802939e+02 </wgt>
<wgt id='77'> +4.9326250e+02 </wgt>
<wgt id='78'> +4.8489219e+02 </wgt>
<wgt id='79'> +4.9788706e+02 </wgt>
<wgt id='80'> +4.9133916e+02 </wgt>
<wgt id='81'> +4.9629707e+02 </wgt>
<wgt id='82'> +5.0018935e+02 </wgt>
<wgt id='83'> +5.1088497e+02 </wgt>
<wgt id='84'> +5.4185155e+02 </wgt>
<wgt id='85'> +5.1458451e+02 </wgt>
<wgt id='86'> +5.0703441e+02 </wgt>
<wgt id='87'> +5.0737806e+02 </wgt>
<wgt id='88'> +5.0759944e+02 </wgt>
<wgt id='89'> +5.0935680e+02 </wgt>
<wgt id='90'> +5.1255109e+02 </wgt>
<wgt id='91'> +5.1740355e+02 </wgt>
<wgt id='92'> +4.6291846e+02 </wgt>
<wgt id='93'> +5.0162746e+02 </wgt>
<wgt id='94'> +4.9183768e+02 </wgt>
<wgt id='95'> +4.9769480e+02 </wgt>
<wgt id='96'> +5.4013744e+02 </wgt>
<wgt id='97'> +4.9997350e+02 </wgt>
<wgt id='98'> +4.9378896e+02 </wgt>
<wgt id='99'> +4.7880980e+02 </wgt>
<wgt id='100'> +4.7292887e+02 </wgt>
<wgt id='101'> +5.5314032e+02 </wgt>
<wgt id='102'> +5.1586778e+02 </wgt>
<wgt id='103'> +5.4141895e+02 </wgt>
<wgt id='104'> +5.0947497e+02 </wgt>
<wgt id='105'> +5.2145167e+02 </wgt>
<wgt id='106'> +4.6297057e+02 </wgt>
<wgt id='107'> +4.8448893e+02 </wgt>
<wgt id='108'> +4.4865253e+02 </wgt>
<wgt id='109'> +4.7676394e+02 </wgt>
<wgt id='110'> +5.0000666e+02 </wgt>
<wgt id='111'> +4.9154392e+02 </wgt>
<wgt id='112'> +4.8085883e+02 </wgt>
<wgt id='113'> +4.6998314e+02 </wgt>
<wgt id='114'> +4.9723526e+02 </wgt>
<wgt id='115'> +4.8263733e+02 </wgt>
<wgt id='116'> +5.2000403e+02 </wgt>
<wgt id='117'> +5.0082695e+02 </wgt>
<wgt id='118'> +5.2670042e+02 </wgt>
<wgt id='119'> +4.9409832e+02 </wgt>
<wgt id='120'> +4.9475399e+02 </wgt>
<wgt id='121'> +4.9528414e+02 </wgt>
<wgt id='122'> +4.9907304e+02 </wgt>
<wgt id='123'> +5.0754642e+02 </wgt>
<wgt id='124'> +5.5482075e+02 </wgt>
<wgt id='125'> +5.6093717e+02 </wgt>
<wgt id='126'> +5.1950342e+02 </wgt>
<wgt id='127'> +5.1663347e+02 </wgt>
<wgt id='128'> +4.6179746e+02 </wgt>
<wgt id='129'> +5.6374312e+02 </wgt>
<wgt id='130'> +5.0118374e+02 </wgt>
<wgt id='131'> +5.2576838e+02 </wgt>
<wgt id='132'> +5.2565229e+02 </wgt>
<wgt id='133'> +5.1680142e+02 </wgt>
<wgt id='134'> +4.9006954e+02 </wgt>
<wgt id='135'> +5.1145941e+02 </wgt>
<wgt id='136'> +5.1762132e+02 </wgt>
<wgt id='137'> +4.8405318e+02 </wgt>
<wgt id='138'> +4.7346883e+02 </wgt>
<wgt id='139'> +5.1895169e+02 </wgt>
<wgt id='140'> +5.2092763e+02 </wgt>
<wgt id='141'> +5.1351669e+02 </wgt>
<wgt id='142'> +4.7791441e+02 </wgt>
<wgt id='143'> +5.1271272e+02 </wgt>
<wgt id='144'> +4.9500287e+02 </wgt>
<wgt id='145'> +5.0058286e+02 </wgt>
</rwgt>
</event>
<event>
 4      1 +5.0481800e+02 1.89524800e+02 7.54677100e-03 1.15889100e-01
       21 -1    0    0  501  502 +0.0000000000e+00 +0.0000000000e+00 +1.3082113936e+03 1.3082113936e+03 0.0000000000e+00 0.0000e+00 1.0000e+00
       21 -1    0    0  502  503 -0.0000000000e+00 -0.0000000000e+00 -3.9307965893e+01 3.9307965893e+01 0.0000000000e+00 0.0000e+00 1.0000e+00
        6  1    1    2  501    0 +7.6360574129e+01 -1.2637623276e+01 +1.0043994669e+03 1.0221242273e+03 1.7300000000e+02 0.0000e+00 1.0000e+00
       -6  1    1    2    0  503 -7.6360574129e+01 +1.2637623276e+01 +2.6450396074e+02 3.2539513219e+02 1.7300000000e+02 0.0000e+00 1.0000e+00
<mgrwt>
<rscale>  2 0.18952479E+03</rscale>
<asrwt>0</asrwt>
<pdfrwt beam="1">  1       21 0.20126326E+00 0.18952479E+03</pdfrwt>
<pdfrwt beam="2">  1       21 0.60473804E-02 0.18952479E+03</pdfrwt>
<totfact> 0.25697501E+04</totfact>
</mgrwt>
<rwgt>
<wgt id='1'> +6.7614577e+02 </wgt>
<wgt id='2'> +7.0926172e+02 </wgt>
<wgt id='3'> +5.0481800e+02 </wgt>
<wgt id='4'> +6.7614576e+02 </wgt>
<wgt id='5'> +4.6947735e+02 </wgt>
<wgt id='6'> +6.1995524e+02 </wgt>
<wgt id='7'> +6.5159915e+02 </wgt>
<wgt id='8'> +4.5606218e+02 </wgt>
<wgt id='9'> +6.1995524e+02 </wgt>
<wgt id='10'> +4.2430798e+02 </wgt>
<wgt id='11'> +5.6007936e+02 </wgt>
<wgt id='12'> +5.8916429e+02 </wgt>
<wgt id='13'> +4.1298358e+02 </wgt>
<wgt id='14'> +5.6007936e+02 </wgt>
<wgt id='15'> +3.8452119e+02 </wgt>
<wgt id='16'> +5.5057290e+02 </wgt>
<wgt id='17'> +5.7463655e+02 </wgt>
<wgt id='18'> +4.2481070e+02 </wgt>
<wgt id='19'> +5.5057289e+02 </wgt>
<wgt id='20'> +3.9661865e+02 </wgt>
<wgt id='21'> +5.2791893e+02 </wgt>
<wgt id='22'> +3.8378206e+02 </wgt>
<wgt id='23'> +5.0481800e+02 </wgt>
<wgt id='24'> +3.5845916e+02 </wgt>
<wgt id='25'> +4.5606218e+02 </wgt>
<wgt id='26'> +4.7733485e+02 </wgt>
<wgt id='27'> +3.4753088e+02 </wgt>
<wgt id='28'> +4.5606218e+02 </wgt>
<wgt id='29'> +3.2484692e+02 </wgt>
<wgt id='30'> +4.6331402e+02 </wgt>
<wgt id='31'> +4.8186938e+02 </wgt>
<wgt id='32'> +3.6245617e+02 </wgt>
<wgt id='33'> +4.6331402e+02 </wgt>
<wgt id='34'> +3.3948594e+02 </wgt>
<wgt id='35'> +4.2481070e+02 </wgt>
<wgt id='36'> +4.4269368e+02 </wgt>
<wgt id='37'> +3.2744979e+02 </wgt>
<wgt id='38'> +4.2481070e+02 </wgt>
<wgt id='39'> +3.0682331e+02 </wgt>
<wgt id='40'> +3.8378207e+02 </wgt>
<wgt id='41'> +4.0027570e+02 </wgt>
<wgt id='42'> +2.9651963e+02 </wgt>
<wgt id='43'> +3.8378206e+02 </wgt>
<wgt id='44'> +2.7805290e+02 </wgt>
<wgt id='45'> +5.0481800e+02 </wgt>
<wgt id='46'> +5.1804871e+02 </wgt>
<wgt id='47'> +5.2421137e+02 </wgt>
<wgt id='48'> +5.0328710e+02 </wgt>
<wgt id='49'> +4.6479754e+02 </wgt>
<wgt id='50'> +5.8880116e+02 </wgt>
<wgt id='51'> +4.7476853e+02 </wgt>
<wgt id='52'> +4.6967836e+02 </wgt>
<wgt id='53'> +5.0832744e+02 </wgt>
<wgt id='54'> +5.3658266e+02 </wgt>
<wgt id='55'> +5.6918493e+02 </wgt>
<wgt id='56'> +4.8476070e+02 </wgt>
<wgt id='57'> +5.3754888e+02 </wgt>
<wgt id='58'> +4.5737558e+02 </wgt>
<wgt id='59'> +5.4878568e+02 </wgt>
<wgt id='60'> +5.0463558e+02 </wgt>
<wgt id='61'> +4.3931993e+02 </wgt>
<wgt id='62'> +4.6376145e+02 </wgt>
<wgt id='63'> +5.3318146e+02 </wgt>
<wgt id='64'> +5.0647077e+02 </wgt>
<wgt id='65'> +4.5851681e+02 </wgt>
<wgt id='66'> +5.1168838e+02 </wgt>
<wgt id='67'> +5.0823366e+02 </wgt>
<wgt id='68'> +6.1581544e+02 </wgt>
<wgt id='69'> +5.4667860e+02 </wgt>
<wgt id='70'> +5.4787422e+02 </wgt>
<wgt id='71'> +4.6840033e+02 </wgt>
<wgt id='72'> +4.6244185e+02 </wgt>
<wgt id='73'> +4.5701604e+02 </wgt>
<wgt id='74'> +5.8153036e+02 </wgt>
<wgt id='75'> +5.5196142e+02 </wgt>
<wgt id='76'> +5.1968418e+02 </wgt>
<wgt id='77'> +4.7588721e+02 </wgt>
<wgt id='78'> +4.3455936e+02 </wgt>
<wgt id='79'> +5.4249733e+02 </wgt>
<wgt id='80'> +4.4621096e+02 </wgt>
<wgt id='81'> +5.2505946e+02 </wgt>
<wgt id='82'> +4.9631749e+02 </wgt>
<wgt id='83'> +4.9707140e+02 </wgt>
<wgt id='84'> +4.9092737e+02 </wgt>
<wgt id='85'> +4.5515441e+02 </wgt>
<wgt id='86'> +5.3100813e+02 </wgt>
<wgt id='87'> +4.9721076e+02 </wgt>
<wgt id='88'> +4.9247337e+02 </wgt>
<wgt id='89'> +4.2675653e+02 </wgt>
<wgt id='90'> +4.6870221e+02 </wgt>
<wgt id='91'> +4.3863685e+02 </wgt>
<wgt id='92'> +4.7527799e+02 </wgt>
<wgt id='93'> +5.1088891e+02 </wgt>
<wgt id='94'> +4.6343948e+02 </wgt>
<wgt id='95'> +5.3119164e+02 </wgt>
<wgt id='96'> +5.2756493e+02 </wgt>
<wgt id='97'> +4.5669499e+02 </wgt>
<wgt id='98'> +5.4539751e+02 </wgt>
<wgt id='99'> +4.2328393e+02 </wgt>
<wgt id='100'> +3.8519098e+02 </wgt>
<wgt id='101'> +5.8779115e+02 </wgt>
<wgt id='102'> +5.6749058e+02 </wgt>
<wgt id='103'> +4.8021160e+02 </wgt>
<wgt id='104'> +5.4075934e+02 </wgt>
<wgt id='105'> +5.1730271e+02 </wgt>
<wgt id='106'> +4.9327769e+02 </wgt>
<wgt id='107'> +4.9087730e+02 </wgt>
<wgt id='108'> +4.7369293e+02 </wgt>
<wgt id='109'> +5.0048019e+02 </wgt>
<wgt id='110'> +4.6308010e+02 </wgt>
<wgt id='111'> +4.9012368e+02 </wgt>
<wgt id='112'> +5.2693614e+02 </wgt>
<wgt id='113'> +5.3446302e+02 </wgt>
<wgt id='114'> +5.2489675e+02 </wgt>
<wgt id='115'> +4.6325308e+02 </wgt>
<wgt id='116'> +5.5387550e+02 </wgt>
<wgt id='117'> +4.9480510e+02 </wgt>
<wgt id='118'> +5.1853220e+02 </wgt>
<wgt id='119'> +5.5549220e+02 </wgt>
<wgt id='120'> +5.0487346e+02 </wgt>
<wgt id='121'> +4.9619555e+02 </wgt>
<wgt id='122'> +4.9346270e+02 </wgt>
<wgt id='123'> +4.7969533e+02 </wgt>
<wgt id='124'> +5.6816251e+02 </wgt>
<wgt id='125'> +6.3545187e+02 </wgt>
<wgt id='126'> +4.9318241e+02 </wgt>
<wgt id='127'> +4.8156194e+02 </wgt>
<wgt id='128'> +4.8780033e+02 </wgt>
<wgt id='129'> +5.1339410e+02 </wgt>
<wgt id='130'> +4.9436521e+02 </wgt>
<wgt id='131'> +4.6319888e+02 </wgt>
<wgt id='132'> +5.5243305e+02 </wgt>
<wgt id='133'> +5.5095458e+02 </wgt>
<wgt id='134'> +5.3241276e+02 </wgt>
<wgt id='135'> +4.8226159e+02 </wgt>
<wgt id='136'> +5.9675482e+02 </wgt>
<wgt id='137'> +5.3128660e+02 </wgt>
<wgt id='138'> +5.1634297e+02 </wgt>
<wgt id='139'> +5.2057567e+02 </wgt>
<wgt id='140'> +4.9226191e+02 </wgt>
<wgt id='141'> +5.7560508e+02 </wgt>
<wgt id='142'> +3.5198038e+02 </wgt>
<wgt id='143'> +5.1756705e+02 </wgt>
<wgt id='144'> +4.5875251e+02 </wgt>
<wgt id='145'> +4.6386340e+02 </wgt>
</rwgt>
</event>
<event>
 4      1 +5.0481800e+02 2.71059500e+02 7.54677100e-03 1.10067500e-01
       21 -1    0    0  501  502 +0.0000000000e+00 +0.0000000000e+00 +2.0073141735e+02 2.0073141735e+02 0.0000000000e+00 0.0000e+00 1.0000e+00
       21 -1    0    0  502  503 -0.0000000000e+00 -0.0000000000e+00 -3.9474443712e+02 3.9474443712e+02 0.0000000000e+00 0.0000e+00 1.0000e+00
        6  1    1    2  501    0 -1.8227758293e+02 -1.0158305488e+02 -1.6701132126e+01 2.7157349298e+02 1.7300000000e+02 0.0000e+00 1.0000e+00
       -6  1    1    2    0  503 +1.8227758293e+02 +1.0158305488e+02 -1.7731188765e+02 3.2390236149e+02 1.7300000000e+02 0.0000e+00 1.0000e+00
<mgrwt>
<rscale>  2 0.27105947E+03</rscale>
<asrwt>0</asrwt>
<pdfrwt beam="1">  1       21 0.30881757E-01 0.27105947E+03</pdfrwt>
<pdfrwt beam="2">  1       21 0.60729913E-01 0.27105947E+03</pdfrwt>
<totfact> 0.24443000E+04</totfact>
</mgrwt>
<rwgt>
<wgt id='1'> +6.5492891e+02 </wgt>
<wgt id='2'> +5.1343043e+02 </wgt>
<wgt id='3'> +5.0481800e+02 </wgt>
<wgt id='4'> +6.5492892e+02 </wgt>
<wgt id='5'> +4.9793977e+02 </wgt>
<wgt id='6'> +6.0834475e+02 </wgt>
<wgt id='7'> +4.7412890e+02 </wgt>
<wgt id='8'> +4.6621274e+02 </wgt>
<wgt id='9'> +6.0834475e+02 </wgt>
<wgt id='10'> +4.5989118e+02 </wgt>
<wgt id='11'> +5.6182241e+02 </wgt>
<wgt id='12'> +4.3848205e+02 </wgt>
<wgt id='13'> +4.3121154e+02 </wgt>
<wgt id='14'> +5.6182242e+02 </wgt>
<wgt id='15'> +4.2540572e+02 </wgt>
<wgt id='16'> +5.4347458e+02 </wgt>
<wgt id='17'> +4.3489994e+02 </wgt>
<wgt id='18'> +4.2799731e+02 </wgt>
<wgt id='19'> +5.4347458e+02 </wgt>
<wgt id='20'> +4.2247977e+02 </wgt>
<wgt id='21'> +4.0160968e+02 </wgt>
<wgt id='22'> +3.9526680e+02 </wgt>
<wgt id='23'> +5.0481800e+02 </wgt>
<wgt id='24'> +3.9019723e+02 </wgt>
<wgt id='25'> +4.6621273e+02 </wgt>
<wgt id='26'> +3.7141510e+02 </wgt>
<wgt id='27'> +3.6559191e+02 </wgt>
<wgt id='28'> +4.6621274e+02 </wgt>
<wgt id='29'> +3.6093785e+02 </wgt>
<wgt id='30'> +4.6077132e+02 </wgt>
<wgt id='31'> +3.7310105e+02 </wgt>
<wgt id='32'> +3.6746532e+02 </wgt>
<wgt id='33'> +4.6077132e+02 </wgt>
<wgt id='34'> +3.6295671e+02 </wgt>
<wgt id='35'> +4.2799731e+02 </wgt>
<wgt id='36'> +3.4454130e+02 </wgt>
<wgt id='37'> +3.3936391e+02 </wgt>
<wgt id='38'> +4.2799731e+02 </wgt>
<wgt id='39'> +3.3522245e+02 </wgt>
<wgt id='40'> +3.9526680e+02 </wgt>
<wgt id='41'> +3.1863735e+02 </wgt>
<wgt id='42'> +3.1388596e+02 </wgt>
<wgt id='43'> +3.9526680e+02 </wgt>
<wgt id='44'> +3.1008542e+02 </wgt>
<wgt id='45'> +5.0481800e+02 </wgt>
<wgt id='46'> +5.1209830e+02 </wgt>
<wgt id='47'> +5.2611617e+02 </wgt>
<wgt id='48'> +5.1047634e+02 </wgt>
<wgt id='49'> +5.0209152e+02 </wgt>
<wgt id='50'> +6.0669688e+02 </wgt>
<wgt id='51'> +4.9478337e+02 </wgt>
<wgt id='52'> +5.0314869e+02 </wgt>
<wgt id='53'> +5.0488654e+02 </wgt>
<wgt id='54'> +5.0855681e+02 </wgt>
<wgt id='55'> +4.5425748e+02 </wgt>
<wgt id='56'> +4.6264035e+02 </wgt>
<wgt id='57'> +4.9331847e+02 </wgt>
<wgt id='58'> +5.0036969e+02 </wgt>
<wgt id='59'> +5.0689157e+02 </wgt>
<wgt id='60'> +4.9211030e+02 </wgt>
<wgt id='61'> +4.7358161e+02 </wgt>
<wgt id='62'> +4.9885970e+02 </wgt>
<wgt id='63'> +5.0558053e+02 </wgt>
<wgt id='64'> +4.9406394e+02 </wgt>
<wgt id='65'> +5.8955787e+02 </wgt>
<wgt id='66'> +4.9495164e+02 </wgt>
<wgt id='67'> +5.0912918e+02 </wgt>
<wgt id='68'> +5.5000452e+02 </wgt>
<wgt id='69'> +5.0213173e+02 </wgt>
<wgt id='70'> +4.9588751e+02 </wgt>
<wgt id='71'> +5.1321863e+02 </wgt>
<wgt id='72'> +4.7906390e+02 </wgt>
<wgt id='73'> +4.9370303e+02 </wgt>
<wgt id='74'> +5.2820948e+02 </wgt>
<wgt id='75'> +5.1800889e+02 </wgt>
<wgt id='76'> +4.8985827e+02 </wgt>
<wgt id='77'> +4.9095502e+02 </wgt>
<wgt id='78'> +4.9538411e+02 </wgt>
<wgt id='79'> +4.9017787e+02 </wgt>
<wgt id='80'> +4.9669018e+02 </wgt>
<wgt id='81'> +4.9340479e+02 </wgt>
<wgt id='82'> +5.1201942e+02 </wgt>
<wgt id='83'> +5.1793371e+02 </wgt>
<wgt id='84'> +5.5583323e+02 </wgt>
<wgt id='85'> +5.2833939e+02 </wgt>
<wgt id='86'> +5.0632147e+02 </wgt>
<wgt id='87'> +5.0724913e+02 </wgt>
<wgt id='88'> +5.1468732e+02 </wgt>
<wgt id='89'> +5.1783554e+02 </wgt>
<wgt id='90'> +5.1265855e+02 </wgt>
<wgt id='91'> +5.3216767e+02 </wgt>
<wgt id='92'> +4.5366378e+02 </wgt>
<wgt id='93'> +5.0036575e+02 </wgt>
<wgt id='94'> +4.9613832e+02 </wgt>
<wgt id='95'> +4.8365638e+02 </wgt>
<wgt id='96'> +5.5247364e+02 </wgt>
<wgt id='97'> +5.0704650e+02 </wgt>
<wgt id='98'> +4.8516304e+02 </wgt>
<wgt id='99'> +4.8563172e+02 </wgt>
<wgt id='100'> +4.8627904e+02 </wgt>
<wgt id='101'> +5.4567598e+02 </wgt>
<wgt id='102'> +5.0469379e+02 </wgt>
<wgt id='103'> +5.5147569e+02 </wgt>
<wgt id='104'> +5.0847801e+02 </wgt>
<wgt id='105'> +5.1975733e+02 </wgt>
<wgt id='106'> +4.5484477e+02 </wgt>
<wgt id='107'> +4.8649177e+02 </wgt>
<wgt id='108'> +4.4298734e+02 </wgt>
<wgt id='109'> +4.6883608e+02 </wgt>
<wgt id='110'> +5.0241608e+02 </wgt>
<wgt id='111'> +4.8823880e+02 </wgt>
<wgt id='112'> +4.7630370e+02 </wgt>
<wgt id='113'> +4.6019865e+02 </wgt>
<wgt id='114'> +4.9278662e+02 </wgt>
<wgt id='115'> +4.9250895e+02 </wgt>
<wgt id='116'> +5.1586771e+02 </wgt>
<wgt id='117'> +5.0638904e+02 </wgt>
<wgt id='118'> +5.2675122e+02 </wgt>
<wgt id='119'> +4.8367597e+02 </wgt>
<wgt id='120'> +4.9554662e+02 </wgt>
<wgt id='121'> +4.8794996e+02 </wgt>
<wgt id='122'> +4.9727832e+02 </wgt>
<wgt id='123'> +5.1313585e+02 </wgt>
<wgt id='124'> +5.5134990e+02 </wgt>
<wgt id='125'> +5.5248846e+02 </wgt>
<wgt id='126'> +5.2717084e+02 </wgt>
<wgt id='127'> +5.2207548e+02 </wgt>
<wgt id='128'> +4.6304229e+02 </wgt>
<wgt id='129'> +5.7271628e+02 </wgt>
<wgt id='130'> +5.0953634e+02 </wgt>
<wgt id='131'> +5.3733687e+02 </wgt>
<wgt id='132'> +5.0940658e+02 </wgt>
<wgt id='133'> +5.1023002e+02 </wgt>
<wgt id='134'> +4.7880033e+02 </wgt>
<wgt id='135'> +5.1639340e+02 </wgt>
<wgt id='136'> +4.9395887e+02 </wgt>
<wgt id='137'> +4.8001262e+02 </wgt>
<wgt id='138'> +4.6982986e+02 </wgt>
<wgt id='139'> +5.1819888e+02 </wgt>
<wgt id='140'> +5.3011394e+02 </wgt>
<wgt id='141'> +5.0790766e+02 </wgt>
<wgt id='142'> +4.9483235e+02 </wgt>
<wgt id='143'> +5.0555915e+02 </wgt>
<wgt id='144'> +4.9812762e+02 </wgt>
<wgt id='145'> +5.0548332e+02 </wgt>
</rwgt>
</event>
<event>
 4      1 +5.0481800e+02 3.22035000e+02 7.54677100e-03 1.07471700e-01
       21 -1    0    0  503  502 +0.0000000000e+00 +0.0000000000e+00 +3.2215611768e+02 3.2215611768e+02 0.0000000000e+00 0.0000e+00 1.0000e+00
       21 -1    0    0  501  503 -0.0000000000e+00 -0.0000000000e+00 -3.5295196801e+02 3.5295196801e+02 0.0000000000e+00 0.0000e+00 1.0000e+00
        6  1    1    2  501    0 -2.4603986430e+02 +1.1507359521e+02 -1.1549756777e+02 3.4212020592e+02 1.7300000000e+02 0.0000e+00 1.0000e+00
       -6  1    1    2    0  502 +2.4603986430e+02 -1.1507359521e+02 +8.4701717433e+01 3.3298787977e+02 1.7300000000e+02 0.0000e+00 1.0000e+00
<mgrwt>
<rscale>  2 0.32203501E+03</rscale>
<asrwt>0</asrwt>
<pdfrwt beam="1">  1       21 0.49562480E-01 0.32203501E+03</pdfrwt>
<pdfrwt beam="2">  1       21 0.54300303E-01 0.32203501E+03</pdfrwt>
<totfact> 0.11620425E+04</totfact>
</mgrwt>
<rwgt>
<wgt id='1'> +6.5994863e+02 </wgt>
<wgt id='2'> +5.0818774e+02 </wgt>
<wgt id='3'> +5.0481800e+02 </wgt>
<wgt id='4'> +6.5994864e+02 </wgt>
<wgt id='5'> +4.9621483e+02 </wgt>
<wgt id='6'> +6.0325687e+02 </wgt>
<wgt id='7'> +4.6455621e+02 </wgt>
<wgt id='8'> +4.6150550e+02 </wgt>
<wgt id='9'> +6.0325687e+02 </wgt>
<wgt id='10'> +4.5371671e+02 </wgt>
<wgt id='11'> +5.5149849e+02 </wgt>
<wgt id='12'> +4.2580552e+02 </wgt>
<wgt id='13'> +4.2303953e+02 </wgt>
<wgt id='14'> +5.5149849e+02 </wgt>
<wgt id='15'> +4.1597727e+02 </wgt>
<wgt id='16'> +5.5225886e+02 </wgt>
<wgt id='17'> +4.3214173e+02 </wgt>
<wgt id='18'> +4.2942049e+02 </wgt>
<wgt id='19'> +5.5225886e+02 </wgt>
<wgt id='20'> +4.2246865e+02 </wgt>
<wgt id='21'> +3.9503929e+02 </wgt>
<wgt id='22'> +3.9257696e+02 </wgt>
<wgt id='23'> +5.0481800e+02 </wgt>
<wgt id='24'> +3.8628649e+02 </wgt>
<wgt id='25'> +4.6150550e+02 </wgt>
<wgt id='26'> +3.6208731e+02 </wgt>
<wgt id='27'> +3.5985610e+02 </wgt>
<wgt id='28'> +4.6150550e+02 </wgt>
<wgt id='29'> +3.5415579e+02 </wgt>
<wgt id='30'> +4.6977578e+02 </wgt>
<wgt id='31'> +3.7197217e+02 </wgt>
<wgt id='32'> +3.6973554e+02 </wgt>
<wgt id='33'> +4.6977578e+02 </wgt>
<wgt id='34'> +3.6401846e+02 </wgt>
<wgt id='35'> +4.2942049e+02 </wgt>
<wgt id='36'> +3.4003571e+02 </wgt>
<wgt id='37'> +3.3801289e+02 </wgt>
<wgt id='38'> +4.2942049e+02 </wgt>
<wgt id='39'> +3.3284225e+02 </wgt>
<wgt id='40'> +3.9257696e+02 </wgt>
<wgt id='41'> +3.1167183e+02 </wgt>
<wgt id='42'> +3.0983988e+02 </wgt>
<wgt id='43'> +3.9257696e+02 </wgt>
<wgt id='44'> +3.0515696e+02 </wgt>
<wgt id='45'> +5.0481800e+02 </wgt>
<wgt id='46'> +5.1681248e+02 </wgt>
<wgt id='47'> +5.2883075e+02 </wgt>
<wgt id='48'> +5.1347476e+02 </wgt>
<wgt id='49'> +5.0158574e+02 </wgt>
<wgt id='50'> +6.1944497e+02 </wgt>
<wgt id='51'> +4.9489179e+02 </wgt>
<wgt id='52'> +5.0410775e+02 </wgt>
<wgt id='53'> +5.0114304e+02 </wgt>
<wgt id='54'> +5.0857725e+02 </wgt>
<wgt id='55'> +4.5417347e+02 </wgt>
<wgt id='56'> +4.5796318e+02 </wgt>
<wgt id='57'> +4.9342053e+02 </wgt>
<wgt id='58'> +4.9586734e+02 </wgt>
<wgt id='59'> +5.1230199e+02 </wgt>
<wgt id='60'> +4.9707649e+02 </wgt>
<wgt id='61'> +4.6487909e+02 </wgt>
<wgt id='62'> +4.9970566e+02 </wgt>
<wgt id='63'> +5.0562157e+02 </wgt>
<wgt id='64'> +4.8961640e+02 </wgt>
<wgt id='65'> +5.8764873e+02 </wgt>
<wgt id='66'> +4.9627278e+02 </wgt>
<wgt id='67'> +5.0910330e+02 </wgt>
<wgt id='68'> +5.5592386e+02 </wgt>
<wgt id='69'> +5.0840064e+02 </wgt>
<wgt id='70'> +4.9531145e+02 </wgt>
<wgt id='71'> +5.1289541e+02 </wgt>
<wgt id='72'> +4.7081267e+02 </wgt>
<wgt id='73'> +4.9128362e+02 </wgt>
<wgt id='74'> +5.3356411e+02 </wgt>
<wgt id='75'> +5.1933335e+02 </wgt>
<wgt id='76'> +4.8886853e+02 </wgt>
<wgt id='77'> +4.9397202e+02 </wgt>
<wgt id='78'> +4.8985043e+02 </wgt>
<wgt id='79'> +4.9361414e+02 </wgt>
<wgt id='80'> +4.9476384e+02 </wgt>
<wgt id='81'> +4.9176439e+02 </wgt>
<wgt id='82'> +5.0910030e+02 </wgt>
<wgt id='83'> +5.2027201e+02 </wgt>
<wgt id='84'> +5.5788257e+02 </wgt>
<wgt id='85'> +5.2771600e+02 </wgt>
<wgt id='86'> +5.0948196e+02 </wgt>
<wgt id='87'> +5.0889909e+02 </wgt>
<wgt id='88'> +5.1601351e+02 </wgt>
<wgt id='89'> +5.1955886e+02 </wgt>
<wgt id='90'> +5.1424985e+02 </wgt>
<wgt id='91'> +5.3031947e+02 </wgt>
<wgt id='92'> +4.4578608e+02 </wgt>
<wgt id='93'> +5.0315158e+02 </wgt>
<wgt id='94'> +4.9260702e+02 </wgt>
<wgt id='95'> +4.8176361e+02 </wgt>
<wgt id='96'> +5.5847629e+02 </wgt>
<wgt id='97'> +5.0395625e+02 </wgt>
<wgt id='98'> +4.8680532e+02 </wgt>
<wgt id='99'> +4.8337858e+02 </wgt>
<wgt id='100'> +4.7818466e+02 </wgt>
<wgt id='101'> +5.5584153e+02 </wgt>
<wgt id='102'> +5.1357118e+02 </wgt>
<wgt id='103'> +5.5480707e+02 </wgt>
<wgt id='104'> +5.1135424e+02 </wgt>
<wgt id='105'> +5.1626816e+02 </wgt>
<wgt id='106'> +4.4767362e+02 </wgt>
<wgt id='107'> +4.7874204e+02 </wgt>
<wgt id='108'> +4.3611550e+02 </wgt>
<wgt id='109'> +4.6437075e+02 </wgt>
<wgt id='110'> +5.0054861e+02 </wgt>
<wgt id='111'> +4.8549698e+02 </wgt>
<wgt id='112'> +4.7213108e+02 </wgt>
<wgt id='113'> +4.5699825e+02 </wgt>
<wgt id='114'> +4.8484993e+02 </wgt>
<wgt id='115'> +4.8405646e+02 </wgt>
<wgt id='116'> +5.2336000e+02 </wgt>
<wgt id='117'> +5.0321163e+02 </wgt>
<wgt id='118'> +5.3308764e+02 </wgt>
<wgt id='119'> +4.8159749e+02 </wgt>
<wgt id='120'> +4.8996287e+02 </wgt>
<wgt id='121'> +4.8549649e+02 </wgt>
<wgt id='122'> +4.9627831e+02 </wgt>
<wgt id='123'> +5.1471928e+02 </wgt>
<wgt id='124'> +5.5960556e+02 </wgt>
<wgt id='125'> +5.6019763e+02 </wgt>
<wgt id='126'> +5.2982785e+02 </wgt>
<wgt id='127'> +5.2421683e+02 </wgt>
<wgt id='128'> +4.5911321e+02 </wgt>
<wgt id='129'> +5.7451331e+02 </wgt>
<wgt id='130'> +5.1091566e+02 </wgt>
<wgt id='131'> +5.3632356e+02 </wgt>
<wgt id='132'> +5.1494813e+02 </wgt>
<wgt id='133'> +5.1568641e+02 </wgt>
<wgt id='134'> +4.8050360e+02 </wgt>
<wgt id='135'> +5.1605107e+02 </wgt>
<wgt id='136'> +4.9858646e+02 </wgt>
<wgt id='137'> +4.8264607e+02 </wgt>
<wgt id='138'> +4.7662069e+02 </wgt>
<wgt id='139'> +5.2080570e+02 </wgt>
<wgt id='140'> +5.2658957e+02 </wgt>
<wgt id='141'> +5.0989875e+02 </wgt>
<wgt id='142'> +4.8803676e+02 </wgt>
<wgt id='143'> +5.0862343e+02 </wgt>
<wgt id='144'> +4.9440665e+02 </wgt>
<wgt id='145'> +5.0559402e+02 </wgt>
</rwgt>
</event>
<event>
 4      1 +5.0481800e+02 2.18914400e+02 7.54677100e-03 1.13469500e-01
       21 -1    0    0  503  502 +0.0000000000e+00 +0.0000000000e+00 +4.9980388280e+02 4.9980388280e+02 0.0000000000e+00 0.0000e+00 -1.0000e+00
       21 -1    0    0  501  503 -0.0000000000e+00 -0.0000000000e+00 -1.4618757550e+02 1.4618757550e+02 0.0000000000e+00 0.0000e+00 -1.0000e+00
        6  1    1    2  501    0 -1.1617109299e+02 -6.7073139392e+01 -1.2660817287e+01 2.1928024345e+02 1.7300000000e+02 0.0000e+00 -1.0000e+00
       -6  1    1    2    0  502 +1.1617109299e+02 +6.7073139392e+01 +3.6627712459e+02 4.2671121485e+02 1.7300000000e+02 0.0000e+00 -1.0000e+00
<mgrwt>
<rscale>  2 0.21891443E+03</rscale>
<asrwt>0</asrwt>
<pdfrwt beam="1">  1       21 0.76892904E-01 0.21891443E+03</pdfrwt>
<pdfrwt beam="2">  1       21 0.22490396E-01 0.21891443E+03</pdfrwt>
<totfact> 0.27440803E+04</totfact>
</mgrwt>
<rwgt>
<wgt id='1'> +6.5766883e+02 </wgt>
<wgt id='2'> +5.4018367e+02 </wgt>
<wgt id='3'> +5.0481800e+02 </wgt>
<wgt id='4'> +6.5766882e+02 </wgt>
<wgt id='5'> +4.6732392e+02 </wgt>
<wgt id='6'> +6.1517276e+02 </wgt>
<wgt id='7'> +4.9927970e+02 </wgt>
<wgt id='8'> +4.6642901e+02 </wgt>
<wgt id='9'> +6.1517276e+02 </wgt>
<wgt id='10'> +4.3193925e+02 </wgt>
<wgt id='11'> +5.6839182e+02 </wgt>
<wgt id='12'> +4.6171024e+02 </wgt>
<wgt id='13'> +4.3148965e+02 </wgt>
<wgt id='14'> +5.6839182e+02 </wgt>
<wgt id='15'> +3.9977172e+02 </wgt>
<wgt id='16'> +5.3969077e+02 </wgt>
<wgt id='17'> +4.5406278e+02 </wgt>
<wgt id='18'> +4.2619240e+02 </wgt>
<wgt id='19'> +5.3969077e+02 </wgt>
<wgt id='20'> +3.9618713e+02 </wgt>
<wgt id='21'> +4.1968008e+02 </wgt>
<wgt id='22'> +3.9378251e+02 </wgt>
<wgt id='23'> +5.0481800e+02 </wgt>
<wgt id='24'> +3.6618877e+02 </wgt>
<wgt id='25'> +4.6642901e+02 </wgt>
<wgt id='26'> +3.8810028e+02 </wgt>
<wgt id='27'> +3.6428497e+02 </wgt>
<wgt id='28'> +4.6642901e+02 </wgt>
<wgt id='29'> +3.3891784e+02 </wgt>
<wgt id='30'> +4.5563372e+02 </wgt>
<wgt id='31'> +3.8714952e+02 </wgt>
<wgt id='32'> +3.6457539e+02 </wgt>
<wgt id='33'> +4.5563372e+02 </wgt>
<wgt id='34'> +3.4013823e+02 </wgt>
<wgt id='35'> +4.2619240e+02 </wgt>
<wgt id='36'> +3.5783365e+02 </wgt>
<wgt id='37'> +3.3685118e+02 </wgt>
<wgt id='38'> +4.2619240e+02 </wgt>
<wgt id='39'> +3.1438376e+02 </wgt>
<wgt id='40'> +3.9378251e+02 </wgt>
<wgt id='41'> +3.3090763e+02 </wgt>
<wgt id='42'> +3.1161826e+02 </wgt>
<wgt id='43'> +3.9378251e+02 </wgt>
<wgt id='44'> +2.9097087e+02 </wgt>
<wgt id='45'> +5.0481800e+02 </wgt>
<wgt id='46'> +5.1273836e+02 </wgt>
<wgt id='47'> +5.2420899e+02 </wgt>
<wgt id='48'> +5.0975532e+02 </wgt>
<wgt id='49'> +5.0034851e+02 </wgt>
<wgt id='50'> +6.0481109e+02 </wgt>
<wgt id='51'> +4.9386159e+02 </wgt>
<wgt id='52'> +5.0343450e+02 </wgt>
<wgt id='53'> +5.0337607e+02 </wgt>
<wgt id='54'> +5.1006431e+02 </wgt>
<wgt id='55'> +4.6138542e+02 </wgt>
<wgt id='56'> +4.6195412e+02 </wgt>
<wgt id='57'> +4.9773565e+02 </wgt>
<wgt id='58'> +4.9890552e+02 </wgt>
<wgt id='59'> +5.1174850e+02 </wgt>
<wgt id='60'> +4.9495374e+02 </wgt>
<wgt id='61'> +4.6164876e+02 </wgt>
<wgt id='62'> +4.9746518e+02 </wgt>
<wgt id='63'> +5.0591551e+02 </wgt>
<wgt id='64'> +4.9483970e+02 </wgt>
<wgt id='65'> +5.8184614e+02 </wgt>
<wgt id='66'> +4.9487287e+02 </wgt>
<wgt id='67'> +5.0869628e+02 </wgt>
<wgt id='68'> +5.5221433e+02 </wgt>
<wgt id='69'> +5.0205165e+02 </wgt>
<wgt id='70'> +4.9658064e+02 </wgt>
<wgt id='71'> +5.1229140e+02 </wgt>
<wgt id='72'> +4.8219739e+02 </wgt>
<wgt id='73'> +4.9233134e+02 </wgt>
<wgt id='74'> +5.2968657e+02 </wgt>
<wgt id='75'> +5.1755668e+02 </wgt>
<wgt id='76'> +4.9272929e+02 </wgt>
<wgt id='77'> +4.9170749e+02 </wgt>
<wgt id='78'> +4.9185619e+02 </wgt>
<wgt id='79'> +4.9234024e+02 </wgt>
<wgt id='80'> +4.9463686e+02 </wgt>
<wgt id='81'> +4.9409628e+02 </wgt>
<wgt id='82'> +5.0747004e+02 </wgt>
<wgt id='83'> +5.1554587e+02 </wgt>
<wgt id='84'> +5.5165337e+02 </wgt>
<wgt id='85'> +5.2397784e+02 </wgt>
<wgt id='86'> +5.0623098e+02 </wgt>
<wgt id='87'> +5.0742939e+02 </wgt>
<wgt id='88'> +5.1192397e+02 </wgt>
<wgt id='89'> +5.1559988e+02 </wgt>
<wgt id='90'> +5.1327276e+02 </wgt>
<wgt id='91'> +5.2760187e+02 </wgt>
<wgt id='92'> +4.5676137e+02 </wgt>
<wgt id='93'> +5.0058426e+02 </wgt>
<wgt id='94'> +4.9486857e+02 </wgt>
<wgt id='95'> +4.8877243e+02 </wgt>
<wgt id='96'> +5.4819302e+02 </wgt>
<wgt id='97'> +5.0492386e+02 </wgt>
<wgt id='98'> +4.8751749e+02 </wgt>
<wgt id='99'> +4.8334752e+02 </wgt>
<wgt id='100'> +4.8189773e+02 </wgt>
<wgt id='101'> +5.4865158e+02 </wgt>
<wgt id='102'> +5.0825976e+02 </wgt>
<wgt id='103'> +5.4894443e+02 </wgt>
<wgt id='104'> +5.0851273e+02 </wgt>
<wgt id='105'> +5.2095965e+02 </wgt>
<wgt id='106'> +4.5744496e+02 </wgt>
<wgt id='107'> +4.8570028e+02 </wgt>
<wgt id='108'> +4.4413360e+02 </wgt>
<wgt id='109'> +4.7136488e+02 </wgt>
<wgt id='110'> +5.0184547e+02 </wgt>
<wgt id='111'> +4.8951376e+02 </wgt>
<wgt id='112'> +4.7705792e+02 </wgt>
<wgt id='113'> +4.6289828e+02 </wgt>
<wgt id='114'> +4.9453870e+02 </wgt>
<wgt id='115'> +4.8907774e+02 </wgt>
<wgt id='116'> +5.1711113e+02 </wgt>
<wgt id='117'> +5.0452885e+02 </wgt>
<wgt id='118'> +5.2699453e+02 </wgt>
<wgt id='119'> +4.8688875e+02 </wgt>
<wgt id='120'> +4.9536751e+02 </wgt>
<wgt id='121'> +4.9071602e+02 </wgt>
<wgt id='122'> +4.9827824e+02 </wgt>
<wgt id='123'> +5.1131271e+02 </wgt>
<wgt id='124'> +5.5316478e+02 </wgt>
<wgt id='125'> +5.5568157e+02 </wgt>
<wgt id='126'> +5.2468099e+02 </wgt>
<wgt id='127'> +5.2056913e+02 </wgt>
<wgt id='128'> +4.6168010e+02 </wgt>
<wgt id='129'> +5.7091829e+02 </wgt>
<wgt id='130'> +5.0555078e+02 </wgt>
<wgt id='131'> +5.3381272e+02 </wgt>
<wgt id='132'> +5.1557666e+02 </wgt>
<wgt id='133'> +5.1239599e+02 </wgt>
<wgt id='134'> +4.8230150e+02 </wgt>
<wgt id='135'> +5.1502213e+02 </wgt>
<wgt id='136'> +5.0233932e+02 </wgt>
<wgt id='137'> +4.8066525e+02 </wgt>
<wgt id='138'> +4.6992233e+02 </wgt>
<wgt id='139'> +5.1864889e+02 </wgt>
<wgt id='140'> +5.2740733e+02 </wgt>
<wgt id='141'> +5.0936197e+02 </wgt>
<wgt id='142'> +4.8788657e+02 </wgt>
<wgt id='143'> +5.0821381e+02 </wgt>
<wgt id='144'> +4.9730084e+02 </wgt>
<wgt id='145'> +5.0426425e+02 </wgt>
</rwgt>
</event>
<event>
 4      1 +5.0481800e+02 2.15199900e+02 7.54677100e-03 1.13751300e-01
       21 -1    0    0  503  502 +0.0000000000e+00 +0.0000000000e+00 +7.0182149216e+02 7.0182149216e+02 0.0000000000e+00 0.0000e+00 1.0000e+00
       21 -1    0    0  501  503 -0.0000000000e+00 -0.0000000000e+00 -1.0510396473e+02 1.0510396473e+02 0.0000000000e+00 0.0000e+00 1.0000e+00
        6  1    1    2  501    0 -5.7863689615e+01 +1.1416570554e+02 +5.2221664510e+01 2.2144551732e+02 1.7300000000e+02 0.0000e+00 1.0000e+00
       -6  1    1    2    0  502 +5.7863689615e+01 -1.1416570554e+02 +5.4449586292e+02 5.8547993957e+02 1.7300000000e+02 0.0000e+00 1.0000e+00
<mgrwt>
<rscale>  2 0.21519994E+03</rscale>
<asrwt>0</asrwt>
<pdfrwt beam="1">  1       21 0.10797253E+00 0.21519994E+03</pdfrwt>
<pdfrwt beam="2">  1       21 0.16169841E-01 0.21519994E+03</pdfrwt>
<totfact> 0.23050479E+04</totfact>
</mgrwt>
<rwgt>
<wgt id='1'> +6.6197859e+02 </wgt>
<wgt id='2'> +5.5309255e+02 </wgt>
<wgt id='3'> +5.0481800e+02 </wgt>
<wgt id='4'> +6.6197859e+02 </wgt>
<wgt id='5'> +4.6266221e+02 </wgt>
<wgt id='6'> +6.1576499e+02 </wgt>
<wgt id='7'> +5.0863146e+02 </wgt>
<wgt id='8'> +4.6371933e+02 </wgt>
<wgt id='9'> +6.1576499e+02 </wgt>
<wgt id='10'> +4.2521694e+02 </wgt>
<wgt id='11'> +5.6563382e+02 </wgt>
<wgt id='12'> +4.6768416e+02 </wgt>
<wgt id='13'> +4.2663433e+02 </wgt>
<wgt id='14'> +5.6563382e+02 </wgt>
<wgt id='15'> +3.9145577e+02 </wgt>
<wgt id='16'> +5.4270495e+02 </wgt>
<wgt id='17'> +4.6376256e+02 </wgt>
<wgt id='18'> +4.2605611e+02 </wgt>
<wgt id='19'> +5.4270494e+02 </wgt>
<wgt id='20'> +3.9227187e+02 </wgt>
<wgt id='21'> +4.2648238e+02 </wgt>
<wgt id='22'> +3.9136968e+02 </wgt>
<wgt id='23'> +5.0481800e+02 </wgt>
<wgt id='24'> +3.6052359e+02 </wgt>
<wgt id='25'> +4.6371933e+02 </wgt>
<wgt id='26'> +3.9214848e+02 </wgt>
<wgt id='27'> +3.6007068e+02 </wgt>
<wgt id='28'> +4.6371933e+02 </wgt>
<wgt id='29'> +3.3189891e+02 </wgt>
<wgt id='30'> +4.5803192e+02 </wgt>
<wgt id='31'> +3.9487908e+02 </wgt>
<wgt id='32'> +3.6434952e+02 </wgt>
<wgt id='33'> +4.5803192e+02 </wgt>
<wgt id='34'> +3.3680368e+02 </wgt>
<wgt id='35'> +4.2605611e+02 </wgt>
<wgt id='36'> +3.6313619e+02 </wgt>
<wgt id='37'> +3.3468679e+02 </wgt>
<wgt id='38'> +4.2605611e+02 </wgt>
<wgt id='39'> +3.0954469e+02 </wgt>
<wgt id='40'> +3.9136968e+02 </wgt>
<wgt id='41'> +3.3390197e+02 </wgt>
<wgt id='42'> +3.0792090e+02 </wgt>
<wgt id='43'> +3.9136968e+02 </wgt>
<wgt id='44'> +2.8496760e+02 </wgt>
<wgt id='45'> +5.0481800e+02 </wgt>
<wgt id='46'> +5.1679795e+02 </wgt>
<wgt id='47'> +5.2149905e+02 </wgt>
<wgt id='48'> +5.0838398e+02 </wgt>
<wgt id='49'> +4.9356529e+02 </wgt>
<wgt id='50'> +6.0571076e+02 </wgt>
<wgt id='51'> +4.9036915e+02 </wgt>
<wgt id='52'> +5.0136567e+02 </wgt>
<wgt id='53'> +4.9898771e+02 </wgt>
<wgt id='54'> +5.1555764e+02 </wgt>
<wgt id='55'> +4.8320558e+02 </wgt>
<wgt id='56'> +4.6124201e+02 </wgt>
<wgt id='57'> +5.0904291e+02 </wgt>
<wgt id='58'> +4.8955524e+02 </wgt>
<wgt id='59'> +5.2582165e+02 </wgt>
<wgt id='60'> +5.0277619e+02 </wgt>
<wgt id='61'> +4.4287709e+02 </wgt>
<wgt id='62'> +4.9259612e+02 </wgt>
<wgt id='63'> +5.0920638e+02 </wgt>
<wgt id='64'> +4.9571077e+02 </wgt>
<wgt id='65'> +5.5612915e+02 </wgt>
<wgt id='66'> +4.9736805e+02 </wgt>
<wgt id='67'> +5.0763304e+02 </wgt>
<wgt id='68'> +5.6153319e+02 </wgt>
<wgt id='69'> +5.0895966e+02 </wgt>
<wgt id='70'> +5.0108146e+02 </wgt>
<wgt id='71'> +5.0635878e+02 </wgt>
<wgt id='72'> +4.8137148e+02 </wgt>
<wgt id='73'> +4.8459668e+02 </wgt>
<wgt id='74'> +5.3833311e+02 </wgt>
<wgt id='75'> +5.1917035e+02 </wgt>
<wgt id='76'> +4.9982500e+02 </wgt>
<wgt id='77'> +4.9341412e+02 </wgt>
<wgt id='78'> +4.7787054e+02 </wgt>
<wgt id='79'> +5.0191640e+02 </wgt>
<wgt id='80'> +4.8692728e+02 </wgt>
<wgt id='81'> +4.9678483e+02 </wgt>
<wgt id='82'> +4.9578691e+02 </wgt>
<wgt id='83'> +5.1074816e+02 </wgt>
<wgt id='84'> +5.3980812e+02 </wgt>
<wgt id='85'> +5.0949178e+02 </wgt>
<wgt id='86'> +5.0985923e+02 </wgt>
<wgt id='87'> +5.0763415e+02 </wgt>
<wgt id='88'> +5.0685398e+02 </wgt>
<wgt id='89'> +5.0439990e+02 </wgt>
<wgt id='90'> +5.1077281e+02 </wgt>
<wgt id='91'> +5.1046145e+02 </wgt>
<wgt id='92'> +4.5941567e+02 </wgt>
<wgt id='93'> +5.0315834e+02 </wgt>
<wgt id='94'> +4.8719170e+02 </wgt>
<wgt id='95'> +5.0102869e+02 </wgt>
<wgt id='96'> +5.4130651e+02 </wgt>
<wgt id='97'> +4.9518944e+02 </wgt>
<wgt id='98'> +4.9800855e+02 </wgt>
<wgt id='99'> +4.7258733e+02 </wgt>
<wgt id='100'> +4.6092609e+02 </wgt>
<wgt id='101'> +5.6174592e+02 </wgt>
<wgt id='102'> +5.2464273e+02 </wgt>
<wgt id='103'> +5.3894016e+02 </wgt>
<wgt id='104'> +5.1326047e+02 </wgt>
<wgt id='105'> +5.2028610e+02 </wgt>
<wgt id='106'> +4.6112356e+02 </wgt>
<wgt id='107'> +4.7999120e+02 </wgt>
<wgt id='108'> +4.4657294e+02 </wgt>
<wgt id='109'> +4.7682579e+02 </wgt>
<wgt id='110'> +4.9638283e+02 </wgt>
<wgt id='111'> +4.9091882e+02 </wgt>
<wgt id='112'> +4.8243675e+02 </wgt>
<wgt id='113'> +4.7195133e+02 </wgt>
<wgt id='114'> +4.9697695e+02 </wgt>
<wgt id='115'> +4.7783480e+02 </wgt>
<wgt id='116'> +5.2643278e+02 </wgt>
<wgt id='117'> +4.9878825e+02 </wgt>
<wgt id='118'> +5.2985611e+02 </wgt>
<wgt id='119'> +4.9763364e+02 </wgt>
<wgt id='120'> +4.9549355e+02 </wgt>
<wgt id='121'> +4.9548320e+02 </wgt>
<wgt id='122'> +4.9853115e+02 </wgt>
<wgt id='123'> +5.0685130e+02 </wgt>
<wgt id='124'> +5.6132809e+02 </wgt>
<wgt id='125'> +5.7083067e+02 </wgt>
<wgt id='126'> +5.1867662e+02 </wgt>
<wgt id='127'> +5.1517646e+02 </wgt>
<wgt id='128'> +4.6096556e+02 </wgt>
<wgt id='129'> +5.6197440e+02 </wgt>
<wgt id='130'> +5.0018599e+02 </wgt>
<wgt id='131'> +5.2070303e+02 </wgt>
<wgt id='132'> +5.3168472e+02 </wgt>
<wgt id='133'> +5.2236618e+02 </wgt>
<wgt id='134'> +4.9371226e+02 </wgt>
<wgt id='135'> +5.0895835e+02 </wgt>
<wgt id='136'> +5.2757759e+02 </wgt>
<wgt id='137'> +4.8765591e+02 </wgt>
<wgt id='138'> +4.7939398e+02 </wgt>
<wgt id='139'> +5.2027473e+02 </wgt>
<wgt id='140'> +5.1695101e+02 </wgt>
<wgt id='141'> +5.1886161e+02 </wgt>
<wgt id='142'> +4.6570019e+02 </wgt>
<wgt id='143'> +5.1475358e+02 </wgt>
<wgt id='144'> +4.8991915e+02 </wgt>
<wgt id='145'> +4.9734973e+02 </wgt>
</rwgt>
</event>
<event>
 4      1 +5.0481800e+02 2.10227600e+02 7.54677100e-03 1.14138600e-01
       21 -1    0    0  501  502 +0.0000000000e+00 +0.0000000000e+00 +3.3608808649e+02 3.3608808649e+02 0.0000000000e+00 0.0000e+00 1.0000e+00
       21 -1    0    0  502  503 -0.0000000000e+00 -0.0000000000e+00 -4.3284451438e+02 4.3284451438e+02 0.0000000000e+00 0.0000e+00 1.0000e+00
        6  1    1    2  501    0 +3.8341071121e+01 +1.1312216000e+02 +2.7241398513e+02 3.4410033437e+02 1.7300000000e+02 0.0000e+00 1.0000e+00
       -6  1    1    2    0  503 -3.8341071121e+01 -1.1312216000e+02 -3.6917041302e+02 4.2483226651e+02 1.7300000000e+02 0.0000e+00 1.0000e+00
<mgrwt>
<rscale>  2 0.21022764E+03</rscale>
<asrwt>0</asrwt>
<pdfrwt beam="1">  1       21 0.51705860E-01 0.21022764E+03</pdfrwt>
<pdfrwt beam="2">  1       21 0.66591463E-01 0.21022764E+03</pdfrwt>
<totfact> 0.72520310E+03</totfact>
</mgrwt>
<rwgt>
<wgt id='1'> +6.7422572e+02 </wgt>
<wgt id='2'> +6.0685349e+02 </wgt>
<wgt id='3'> +5.0481800e+02 </wgt>
<wgt id='4'> +6.7422572e+02 </wgt>
<wgt id='5'> +3.9976094e+02 </wgt>
<wgt id='6'> +6.1658161e+02 </wgt>
<wgt id='7'> +5.5172843e+02 </wgt>
<wgt id='8'> +4.5668005e+02 </wgt>
<wgt id='9'> +6.1658160e+02 </wgt>
<wgt id='10'> +3.6271879e+02 </wgt>
<wgt id='11'> +5.5778621e+02 </wgt>
<wgt id='12'> +4.9976334e+02 </wgt>
<wgt id='13'> +4.1456282e+02 </wgt>
<wgt id='14'> +5.5778621e+02 </wgt>
<wgt id='15'> +3.3025168e+02 </wgt>
<wgt id='16'> +5.5201336e+02 </wgt>
<wgt id='17'> +5.0337862e+02 </wgt>
<wgt id='18'> +4.2586531e+02 </wgt>
<wgt id='19'> +5.5201336e+02 </wgt>
<wgt id='20'> +3.4112169e+02 </wgt>
<wgt id='21'> +4.5765296e+02 </wgt>
<wgt id='22'> +3.8525605e+02 </wgt>
<wgt id='23'> +5.0481800e+02 </wgt>
<wgt id='24'> +3.0951309e+02 </wgt>
<wgt id='25'> +4.5668005e+02 </wgt>
<wgt id='26'> +4.1454846e+02 </wgt>
<wgt id='27'> +3.4972589e+02 </wgt>
<wgt id='28'> +4.5668005e+02 </wgt>
<wgt id='29'> +2.8180844e+02 </wgt>
<wgt id='30'> +4.6567939e+02 </wgt>
<wgt id='31'> +4.2671131e+02 </wgt>
<wgt id='32'> +3.6403582e+02 </wgt>
<wgt id='33'> +4.6567939e+02 </wgt>
<wgt id='34'> +2.9449974e+02 </wgt>
<wgt id='35'> +4.2586531e+02 </wgt>
<wgt id='36'> +3.8794992e+02 </wgt>
<wgt id='37'> +3.2932244e+02 </wgt>
<wgt id='38'> +4.2586531e+02 </wgt>
<wgt id='39'> +2.6721117e+02 </wgt>
<wgt id='40'> +3.8525605e+02 </wgt>
<wgt id='41'> +3.5141047e+02 </wgt>
<wgt id='42'> +2.9895074e+02 </wgt>
<wgt id='43'> +3.8525605e+02 </wgt>
<wgt id='44'> +2.4329299e+02 </wgt>
<wgt id='45'> +5.0481800e+02 </wgt>
<wgt id='46'> +5.1958587e+02 </wgt>
<wgt id='47'> +5.3023263e+02 </wgt>
<wgt id='48'> +5.1493243e+02 </wgt>
<wgt id='49'> +5.0148397e+02 </wgt>
<wgt id='50'> +6.3112798e+02 </wgt>
<wgt id='51'> +4.9439958e+02 </wgt>
<wgt id='52'> +5.0574343e+02 </wgt>
<wgt id='53'> +4.9859179e+02 </wgt>
<wgt id='54'> +5.0889140e+02 </wgt>
<wgt id='55'> +4.5209249e+02 </wgt>
<wgt id='56'> +4.5270931e+02 </wgt>
<wgt id='57'> +4.9384667e+02 </wgt>
<wgt id='58'> +4.9406070e+02 </wgt>
<wgt id='59'> +5.1631544e+02 </wgt>
<wgt id='60'> +4.9990773e+02 </wgt>
<wgt id='61'> +4.5540935e+02 </wgt>
<wgt id='62'> +4.9989900e+02 </wgt>
<wgt id='63'> +5.0535682e+02 </wgt>
<wgt id='64'> +4.8729063e+02 </wgt>
<wgt id='65'> +5.9051715e+02 </wgt>
<wgt id='66'> +4.9536984e+02 </wgt>
<wgt id='67'> +5.0896937e+02 </wgt>
<wgt id='68'> +5.6080765e+02 </wgt>
<wgt id='69'> +5.0987604e+02 </wgt>
<wgt id='70'> +4.9371884e+02 </wgt>
<wgt id='71'> +5.1325697e+02 </wgt>
<wgt id='72'> +4.6730464e+02 </wgt>
<wgt id='73'> +4.9011381e+02 </wgt>
<wgt id='74'> +5.3723541e+02 </wgt>
<wgt id='75'> +5.1992694e+02 </wgt>
<wgt id='76'> +4.8793777e+02 </wgt>
<wgt id='77'> +4.9532062e+02 </wgt>
<wgt id='78'> +4.8655627e+02 </wgt>
<wgt id='79'> +4.9415274e+02 </wgt>
<wgt id='80'> +4.9319407e+02 </wgt>
<wgt id='81'> +4.8990549e+02 </wgt>
<wgt id='82'> +5.0699042e+02 </wgt>
<wgt id='83'> +5.2144101e+02 </wgt>
<wgt id='84'> +5.6087333e+02 </wgt>
<wgt id='85'> +5.2894484e+02 </wgt>
<wgt id='86'> +5.1045719e+02 </wgt>
<wgt id='87'> +5.1026789e+02 </wgt>
<wgt id='88'> +5.1610632e+02 </wgt>
<wgt id='89'> +5.2258149e+02 </wgt>
<wgt id='90'> +5.1659461e+02 </wgt>
<wgt id='91'> +5.3047540e+02 </wgt>
<wgt id='92'> +4.3998736e+02 </wgt>
<wgt id='93'> +5.0424272e+02 </wgt>
<wgt id='94'> +4.9072694e+02 </wgt>
<wgt id='95'> +4.8090010e+02 </wgt>
<wgt id='96'> +5.6300956e+02 </wgt>
<wgt id='97'> +5.0267945e+02 </wgt>
<wgt id='98'> +4.8588698e+02 </wgt>
<wgt id='99'> +4.8208372e+02 </wgt>
<wgt id='100'> +4.7362116e+02 </wgt>
<wgt id='101'> +5.6350565e+02 </wgt>
<wgt id='102'> +5.1782915e+02 </wgt>
<wgt id='103'> +5.6012189e+02 </wgt>
<wgt id='104'> +5.1176893e+02 </wgt>
<wgt id='105'> +5.1600927e+02 </wgt>
<wgt id='106'> +4.4190660e+02 </wgt>
<wgt id='107'> +4.7398339e+02 </wgt>
<wgt id='108'> +4.2906380e+02 </wgt>
<wgt id='109'> +4.6086007e+02 </wgt>
<wgt id='110'> +5.0046273e+02 </wgt>
<wgt id='111'> +4.8360004e+02 </wgt>
<wgt id='112'> +4.6794551e+02 </wgt>
<wgt id='113'> +4.5284550e+02 </wgt>
<wgt id='114'> +4.8084952e+02 </wgt>
<wgt id='115'> +4.7801773e+02 </wgt>
<wgt id='116'> +5.2724403e+02 </wgt>
<wgt id='117'> +5.0133006e+02 </wgt>
<wgt id='118'> +5.3773325e+02 </wgt>
<wgt id='119'> +4.7964773e+02 </wgt>
<wgt id='120'> +4.8641077e+02 </wgt>
<wgt id='121'> +4.8470989e+02 </wgt>
<wgt id='122'> +4.9586829e+02 </wgt>
<wgt id='123'> +5.1553578e+02 </wgt>
<wgt id='124'> +5.6680654e+02 </wgt>
<wgt id='125'> +5.6653264e+02 </wgt>
<wgt id='126'> +5.3189513e+02 </wgt>
<wgt id='127'> +5.2666618e+02 </wgt>
<wgt id='128'> +4.5355346e+02 </wgt>
<wgt id='129'> +5.8003167e+02 </wgt>
<wgt id='130'> +5.1025217e+02 </wgt>
<wgt id='131'> +5.3796549e+02 </wgt>
<wgt id='132'> +5.1970573e+02 </wgt>
<wgt id='133'> +5.1878380e+02 </wgt>
<wgt id='134'> +4.7989320e+02 </wgt>
<wgt id='135'> +5.1707378e+02 </wgt>
<wgt id='136'> +5.0189463e+02 </wgt>
<wgt id='137'> +4.8129542e+02 </wgt>
<wgt id='138'> +4.7608181e+02 </wgt>
<wgt id='139'> +5.2345032e+02 </wgt>
<wgt id='140'> +5.2632544e+02 </wgt>
<wgt id='141'> +5.1012404e+02 </wgt>
<wgt id='142'> +4.8391671e+02 </wgt>
<wgt id='143'> +5.1076158e+02 </wgt>
<wgt id='144'> +4.9281381e+02 </wgt>
<wgt id='145'> +5.0574480e+02 </wgt>
</rwgt>
</event>
<event>
 4      1 +5.0481800e+02 1.75465800e+02 7.54677100e-03 1.17226500e-01
       21 -1    0    0  501  502 +0.0000000000e+00 +0.0000000000e+00 +1.0992370402e+02 1.0992370402e+02 0.0000000000e+00 0.0000e+00 1.0000e+00
       21 -1    0    0  502  503 -0.0000000000e+00 -0.0000000000e+00 -3.4336668135e+02 3.4336668135e+02 0.0000000000e+00 0.0000e+00 1.0000e+00
        6  1    1    2  501    0 -2.9037265025e+01 -4.0095636905e+00 -2.1401824554e+02 2.7675268524e+02 1.7300000000e+02 0.0000e+00 1.0000e+00
       -6  1    1    2    0  503 +2.9037265025e+01 +4.0095636905e+00 -1.9424731789e+01 1.7653770013e+02 1.7300000000e+02 0.0000e+00 1.0000e+00
<mgrwt>
<rscale>  2 0.17546578E+03</rscale>
<asrwt>0</asrwt>
<pdfrwt beam="1">  1       21 0.16911339E-01 0.17546578E+03</pdfrwt>
<pdfrwt beam="2">  1       21 0.52825643E-01 0.17546578E+03</pdfrwt>
<totfact> 0.10766216E+05</totfact>
</mgrwt>
<rwgt>
<wgt id='1'> +6.4468461e+02 </wgt>
<wgt id='2'> +6.3275538e+02 </wgt>
<wgt id='3'> +5.0481800e+02 </wgt>
<wgt id='4'> +6.4468462e+02 </wgt>
<wgt id='5'> +4.8760042e+02 </wgt>
<wgt id='6'> +6.2219516e+02 </wgt>
<wgt id='7'> +6.0989434e+02 </wgt>
<wgt id='8'> +4.7751827e+02 </wgt>
<wgt id='9'> +6.2219516e+02 </wgt>
<wgt id='10'> +4.6069211e+02 </wgt>
<wgt id='11'> +5.8854786e+02 </wgt>
<wgt id='12'> +5.7652423e+02 </wgt>
<wgt id='13'> +4.5068545e+02 </wgt>
<wgt id='14'> +5.8854787e+02 </wgt>
<wgt id='15'> +4.3475934e+02 </wgt>
<wgt id='16'> +5.2306482e+02 </wgt>
<wgt id='17'> +5.1463858e+02 </wgt>
<wgt id='18'> +4.2379635e+02 </wgt>
<wgt id='19'> +5.2306482e+02 </wgt>
<wgt id='20'> +4.1060642e+02 </wgt>
<wgt id='21'> +4.9604503e+02 </wgt>
<wgt id='22'> +4.0087814e+02 </wgt>
<wgt id='23'> +5.0481800e+02 </wgt>
<wgt id='24'> +3.8794703e+02 </wgt>
<wgt id='25'> +4.7751827e+02 </wgt>
<wgt id='26'> +4.6890414e+02 </wgt>
<wgt id='27'> +3.7835190e+02 </wgt>
<wgt id='28'> +4.7751827e+02 </wgt>
<wgt id='29'> +3.6610914e+02 </wgt>
<wgt id='30'> +4.3911462e+02 </wgt>
<wgt id='31'> +4.3274752e+02 </wgt>
<wgt id='32'> +3.6108191e+02 </wgt>
<wgt id='33'> +4.3911462e+02 </wgt>
<wgt id='34'> +3.5049414e+02 </wgt>
<wgt id='35'> +4.2379635e+02 </wgt>
<wgt id='36'> +4.1711264e+02 </wgt>
<wgt id='37'> +3.4155519e+02 </wgt>
<wgt id='38'> +4.2379635e+02 </wgt>
<wgt id='39'> +3.3115206e+02 </wgt>
<wgt id='40'> +4.0087814e+02 </wgt>
<wgt id='41'> +3.9429050e+02 </wgt>
<wgt id='42'> +3.2236244e+02 </wgt>
<wgt id='43'> +4.0087814e+02 </wgt>
<wgt id='44'> +3.1251121e+02 </wgt>
<wgt id='45'> +5.0481800e+02 </wgt>
<wgt id='46'> +5.0364444e+02 </wgt>
<wgt id='47'> +5.2037043e+02 </wgt>
<wgt id='48'> +5.0491383e+02 </wgt>
<wgt id='49'> +5.0366712e+02 </wgt>
<wgt id='50'> +5.8134215e+02 </wgt>
<wgt id='51'> +4.9517477e+02 </wgt>
<wgt id='52'> +5.0233452e+02 </wgt>
<wgt id='53'> +5.1057632e+02 </wgt>
<wgt id='54'> +5.0770128e+02 </wgt>
<wgt id='55'> +4.5528904e+02 </wgt>
<wgt id='56'> +4.7178541e+02 </wgt>
<wgt id='57'> +4.9327409e+02 </wgt>
<wgt id='58'> +5.0983332e+02 </wgt>
<wgt id='59'> +4.9827622e+02 </wgt>
<wgt id='60'> +4.8544792e+02 </wgt>
<wgt id='61'> +4.9198849e+02 </wgt>
<wgt id='62'> +4.9778370e+02 </wgt>
<wgt id='63'> +5.0519568e+02 </wgt>
<wgt id='64'> +5.0138304e+02 </wgt>
<wgt id='65'> +5.8950198e+02 </wgt>
<wgt id='66'> +4.9265554e+02 </wgt>
<wgt id='67'> +5.0920419e+02 </wgt>
<wgt id='68'> +5.3879283e+02 </wgt>
<wgt id='69'> +4.8980142e+02 </wgt>
<wgt id='70'> +4.9714074e+02 </wgt>
<wgt id='71'> +5.1439811e+02 </wgt>
<wgt id='72'> +4.9578503e+02 </wgt>
<wgt id='73'> +4.9919754e+02 </wgt>
<wgt id='74'> +5.1812268e+02 </wgt>
<wgt id='75'> +5.1465020e+02 </wgt>
<wgt id='76'> +4.9190108e+02 </wgt>
<wgt id='77'> +4.8653533e+02 </wgt>
<wgt id='78'> +5.0559359e+02 </wgt>
<wgt id='79'> +4.8462366e+02 </wgt>
<wgt id='80'> +5.0094633e+02 </wgt>
<wgt id='81'> +4.9660264e+02 </wgt>
<wgt id='82'> +5.1761355e+02 </wgt>
<wgt id='83'> +5.1288219e+02 </wgt>
<wgt id='84'> +5.5054987e+02 </wgt>
<wgt id='85'> +5.2913402e+02 </wgt>
<wgt id='86'> +5.0027439e+02 </wgt>
<wgt id='87'> +5.0447973e+02 </wgt>
<wgt id='88'> +5.1147173e+02 </wgt>
<wgt id='89'> +5.1580219e+02 </wgt>
<wgt id='90'> +5.1076366e+02 </wgt>
<wgt id='91'> +5.3567405e+02 </wgt>
<wgt id='92'> +4.7004120e+02 </wgt>
<wgt id='93'> +4.9558260e+02 </wgt>
<wgt id='94'> +5.0335099e+02 </wgt>
<wgt id='95'> +4.8704169e+02 </wgt>
<wgt id='96'> +5.4066465e+02 </wgt>
<wgt id='97'> +5.1284499e+02 </wgt>
<wgt id='98'> +4.8235049e+02 </wgt>
<wgt id='99'> +4.9099612e+02 </wgt>
<wgt id='100'> +5.0318450e+02 </wgt>
<wgt id='101'> +5.2757514e+02 </wgt>
<wgt id='102'> +4.8888363e+02 </wgt>
<wgt id='103'> +5.4548404e+02 </wgt>
<wgt id='104'> +5.0246124e+02 </wgt>
<wgt id='105'> +5.2606634e+02 </wgt>
<wgt id='106'> +4.6877360e+02 </wgt>
<wgt id='107'> +5.0117661e+02 </wgt>
<wgt id='108'> +4.5617654e+02 </wgt>
<wgt id='109'> +4.7719156e+02 </wgt>
<wgt id='110'> +5.0670860e+02 </wgt>
<wgt id='111'> +4.9314489e+02 </wgt>
<wgt id='112'> +4.8325844e+02 </wgt>
<wgt id='113'> +4.6627665e+02 </wgt>
<wgt id='114'> +5.0587817e+02 </wgt>
<wgt id='115'> +5.0555875e+02 </wgt>
<wgt id='116'> +5.0201960e+02 </wgt>
<wgt id='117'> +5.1105056e+02 </wgt>
<wgt id='118'> +5.1517908e+02 </wgt>
<wgt id='119'> +4.8732733e+02 </wgt>
<wgt id='120'> +5.0224316e+02 </wgt>
<wgt id='121'> +4.9290464e+02 </wgt>
<wgt id='122'> +4.9904435e+02 </wgt>
<wgt id='123'> +5.0952442e+02 </wgt>
<wgt id='124'> +5.3600808e+02 </wgt>
<wgt id='125'> +5.3764792e+02 </wgt>
<wgt id='126'> +5.2175848e+02 </wgt>
<wgt id='127'> +5.1827665e+02 </wgt>
<wgt id='128'> +4.6957238e+02 </wgt>
<wgt id='129'> +5.6902712e+02 </wgt>
<wgt id='130'> +5.0629995e+02 </wgt>
<wgt id='131'> +5.3923808e+02 </wgt>
<wgt id='132'> +5.0087524e+02 </wgt>
<wgt id='133'> +5.0028173e+02 </wgt>
<wgt id='134'> +4.7662151e+02 </wgt>
<wgt id='135'> +5.1733425e+02 </wgt>
<wgt id='136'> +4.8617256e+02 </wgt>
<wgt id='137'> +4.7501440e+02 </wgt>
<wgt id='138'> +4.5705501e+02 </wgt>
<wgt id='139'> +5.1379043e+02 </wgt>
<wgt id='140'> +5.3591451e+02 </wgt>
<wgt id='141'> +5.0337892e+02 </wgt>
<wgt id='142'> +5.0889923e+02 </wgt>
<wgt id='143'> +5.0128091e+02 </wgt>
<wgt id='144'> +5.0617787e+02 </wgt>
<wgt id='145'> +5.0584050e+02 </wgt>
</rwgt>
</event>
<event>
 4      1 +5.0481800e+02 1.76530000e+02 7.54677100e-03 1.17120400e-01
       -1 -1    0    0    0  501 -0.0000000000e+00 +0.0000000000e+00 +1.6332047225e+03 1.6332047225e+03 0.0000000000e+00 0.0000e+00 1.0000e+00
        1 -1    0    0  502    0 +0.0000000000e+00 -0.0000000000e+00 -2.2934637058e+01 2.2934637058e+01 0.0000000000e+00 0.0000e+00 -1.0000e+00
        6  1    1    2  502    0 +3.0482466502e+01 -1.7454649575e+01 +1.1445788320e+03 1.1581120620e+03 1.7300000000e+02 0.0000e+00 1.0000e+00
       -6  1    1    2    0  501 -3.0482466502e+01 +1.7454649575e+01 +4.6569125351e+02 4.9802729760e+02 1.7300000000e+02 0.0000e+00 -1.0000e+00
<mgrwt>
<rscale>  2 0.17653001E+03</rscale>
<asrwt>0</asrwt>
<pdfrwt beam="2">  1        1 0.35284070E-02 0.17653001E+03</pdfrwt>
<pdfrwt beam="1">  1       -1 0.25126217E+00 0.17653001E+03</pdfrwt>
<totfact> 0.21248963E+02</totfact>
</mgrwt>
<rwgt>
<wgt id='1'> +6.2461095e+02 </wgt>
<wgt id='2'> +8.3900051e+02 </wgt>
<wgt id='3'> +5.0481800e+02 </wgt>
<wgt id='4'> +6.2461094e+02 </wgt>
<wgt id='5'> +4.9193994e+02 </wgt>
<wgt id='6'> +6.2201887e+02 </wgt>
<wgt id='7'> +8.4581921e+02 </wgt>
<wgt id='8'> +4.9936607e+02 </wgt>
<wgt id='9'> +6.2201886e+02 </wgt>
<wgt id='10'> +4.8624187e+02 </wgt>
<wgt id='11'> +6.1530120e+02 </wgt>
<wgt id='12'> +8.4414324e+02 </wgt>
<wgt id='13'> +4.9140862e+02 </wgt>
<wgt id='14'> +6.1530119e+02 </wgt>
<wgt id='15'> +4.7822174e+02 </wgt>
<wgt id='16'> +5.0692168e+02 </wgt>
<wgt id='17'> +6.5865236e+02 </wgt>
<wgt id='18'> +4.2388192e+02 </wgt>
<wgt id='19'> +5.0692168e+02 </wgt>
<wgt id='20'> +4.1421777e+02 </wgt>
<wgt id='21'> +6.6400534e+02 </wgt>
<wgt id='22'> +4.1930409e+02 </wgt>
<wgt id='23'> +5.0481800e+02 </wgt>
<wgt id='24'> +4.0941994e+02 </wgt>
<wgt id='25'> +4.9936608e+02 </wgt>
<wgt id='26'> +6.6268963e+02 </wgt>
<wgt id='27'> +4.1262243e+02 </wgt>
<wgt id='28'> +4.9936607e+02 </wgt>
<wgt id='29'> +4.0266693e+02 </wgt>
<wgt id='30'> +4.2564833e+02 </wgt>
<wgt id='31'> +5.3068324e+02 </wgt>
<wgt id='32'> +3.6119517e+02 </wgt>
<wgt id='33'> +4.2564833e+02 </wgt>
<wgt id='34'> +3.5355235e+02 </wgt>
<wgt id='35'> +4.2388193e+02 </wgt>
<wgt id='36'> +5.3499620e+02 </wgt>
<wgt id='37'> +3.5729434e+02 </wgt>
<wgt id='38'> +4.2388192e+02 </wgt>
<wgt id='39'> +3.4945720e+02 </wgt>
<wgt id='40'> +4.1930409e+02 </wgt>
<wgt id='41'> +5.3393612e+02 </wgt>
<wgt id='42'> +3.5160081e+02 </wgt>
<wgt id='43'> +4.1930409e+02 </wgt>
<wgt id='44'> +3.4369322e+02 </wgt>
<wgt id='45'> +5.0481800e+02 </wgt>
<wgt id='46'> +4.9075590e+02 </wgt>
<wgt id='47'> +5.8307148e+02 </wgt>
<wgt id='48'> +4.6932251e+02 </wgt>
<wgt id='49'> +4.5576319e+02 </wgt>
<wgt id='50'> +6.1496747e+02 </wgt>
<wgt id='51'> +4.7572183e+02 </wgt>
<wgt id='52'> +5.7554579e+02 </wgt>
<wgt id='53'> +7.0527794e+02 </wgt>
<wgt id='54'> +5.9091451e+02 </wgt>
<wgt id='55'> +4.9021032e+02 </wgt>
<wgt id='56'> +3.8150134e+02 </wgt>
<wgt id='57'> +3.3648937e+02 </wgt>
<wgt id='58'> +6.9466296e+02 </wgt>
<wgt id='59'> +4.8898415e+02 </wgt>
<wgt id='60'> +4.8249172e+02 </wgt>
<wgt id='61'> +3.5436089e+02 </wgt>
<wgt id='62'> +4.8996022e+02 </wgt>
<wgt id='63'> +5.3938635e+02 </wgt>
<wgt id='64'> +5.6485299e+02 </wgt>
<wgt id='65'> +4.4478792e+02 </wgt>
<wgt id='66'> +3.3021783e+02 </wgt>
<wgt id='67'> +3.7894784e+02 </wgt>
<wgt id='68'> +5.5857051e+02 </wgt>
<wgt id='69'> +4.7944807e+02 </wgt>
<wgt id='70'> +6.8875413e+02 </wgt>
<wgt id='71'> +3.2954525e+02 </wgt>
<wgt id='72'> +3.7933933e+02 </wgt>
<wgt id='73'> +5.7703564e+02 </wgt>
<wgt id='74'> +6.5031309e+02 </wgt>
<wgt id='75'> +5.0392311e+02 </wgt>
<wgt id='76'> +5.5563050e+02 </wgt>
<wgt id='77'> +3.9021996e+02 </wgt>
<wgt id='78'> +4.9315638e+02 </wgt>
<wgt id='79'> +6.1695867e+02 </wgt>
<wgt id='80'> +3.5799761e+02 </wgt>
<wgt id='81'> +6.3471269e+02 </wgt>
<wgt id='82'> +6.2388150e+02 </wgt>
<wgt id='83'> +5.0574487e+02 </wgt>
<wgt id='84'> +4.3257271e+02 </wgt>
<wgt id='85'> +4.6093112e+02 </wgt>
<wgt id='86'> +4.0318605e+02 </wgt>
<wgt id='87'> +6.5637858e+02 </wgt>
<wgt id='88'> +5.3391029e+02 </wgt>
<wgt id='89'> +5.2573944e+02 </wgt>
<wgt id='90'> +4.7943384e+02 </wgt>
<wgt id='91'> +4.5672497e+02 </wgt>
<wgt id='92'> +3.8333012e+02 </wgt>
<wgt id='93'> +5.2521833e+02 </wgt>
<wgt id='94'> +4.3914742e+02 </wgt>
<wgt id='95'> +4.0605577e+02 </wgt>
<wgt id='96'> +5.1119998e+02 </wgt>
<wgt id='97'> +4.0394842e+02 </wgt>
<wgt id='98'> +4.5135811e+02 </wgt>
<wgt id='99'> +6.7676399e+02 </wgt>
<wgt id='100'> +2.5041822e+02 </wgt>
<wgt id='101'> +6.6465171e+02 </wgt>
<wgt id='102'> +5.8086714e+02 </wgt>
<wgt id='103'> +6.7629381e+02 </wgt>
<wgt id='104'> +4.5833548e+02 </wgt>
<wgt id='105'> +5.8156060e+02 </wgt>
<wgt id='106'> +4.2741346e+02 </wgt>
<wgt id='107'> +6.2540787e+02 </wgt>
<wgt id='108'> +2.7774185e+02 </wgt>
<wgt id='109'> +4.7441960e+02 </wgt>
<wgt id='110'> +5.0785912e+02 </wgt>
<wgt id='111'> +4.7202197e+02 </wgt>
<wgt id='112'> +4.0296035e+02 </wgt>
<wgt id='113'> +5.5203729e+02 </wgt>
<wgt id='114'> +4.7203527e+02 </wgt>
<wgt id='115'> +3.5859542e+02 </wgt>
<wgt id='116'> +5.1770625e+02 </wgt>
<wgt id='117'> +4.5534057e+02 </wgt>
<wgt id='118'> +5.7890146e+02 </wgt>
<wgt id='119'> +6.1574926e+02 </wgt>
<wgt id='120'> +5.2690324e+02 </wgt>
<wgt id='121'> +5.4351229e+02 </wgt>
<wgt id='122'> +5.1137613e+02 </wgt>
<wgt id='123'> +5.1401420e+02 </wgt>
<wgt id='124'> +5.1517342e+02 </wgt>
<wgt id='125'> +5.9648665e+02 </wgt>
<wgt id='126'> +4.6941329e+02 </wgt>
<wgt id='127'> +5.6228435e+02 </wgt>
<wgt id='128'> +3.8847152e+02 </wgt>
<wgt id='129'> +7.8184493e+02 </wgt>
<wgt id='130'> +4.1930614e+02 </wgt>
<wgt id='131'> +5.6788515e+02 </wgt>
<wgt id='132'> +4.4559934e+02 </wgt>
<wgt id='133'> +6.2571188e+02 </wgt>
<wgt id='134'> +4.9654807e+02 </wgt>
<wgt id='135'> +4.3727596e+02 </wgt>
<wgt id='136'> +6.9398735e+02 </wgt>
<wgt id='137'> +5.0936098e+02 </wgt>
<wgt id='138'> +3.9551417e+02 </wgt>
<wgt id='139'> +5.7642584e+02 </wgt>
<wgt id='140'> +5.8282650e+02 </wgt>
<wgt id='141'> +6.1857197e+02 </wgt>
<wgt id='142'> +3.3520204e+02 </wgt>
<wgt id='143'> +5.3375666e+02 </wgt>
<wgt id='144'> +3.6410350e+02 </wgt>
<wgt id='145'> +5.2473391e+02 </wgt>
</rwgt>
</event>
<event>
 4      1 +5.0481800e+02 1.78023200e+02 7.54677100e-03 1.16973000e-01
       21 -1    0    0  501  502 +0.0000000000e+00 +0.0000000000e+00 +2.8636779106e+01 2.8636779106e+01 0.0000000000e+00 0.0000e+00 1.0000e+00
       21 -1    0    0  502  503 -0.0000000000e+00 -0.0000000000e+00 -1.7877068099e+03 1.7877068099e+03 0.0000000000e+00 0.0000e+00 1.0000e+00
        6  1    1    2  501    0 +8.2419798925e+00 +4.1174362566e+01 -3.1900830265e+02 3.6531979898e+02 1.7300000000e+02 0.0000e+00 1.0000e+00
       -6  1    1    2    0  503 -8.2419798925e+00 -4.1174362566e+01 -1.4400617282e+03 1.4510237901e+03 1.7300000000e+02 0.0000e+00 1.0000e+00
<mgrwt>
<rscale>  2 0.17802320E+03</rscale>
<asrwt>0</asrwt>
<pdfrwt beam="1">  1       21 0.44056570E-02 0.17802320E+03</pdfrwt>
<pdfrwt beam="2">  1       21 0.27503190E+00 0.17802320E+03</pdfrwt>
<totfact> 0.16068466E+04</totfact>
</mgrwt>
<rwgt>
<wgt id='1'> +7.0030356e+02 </wgt>
<wgt id='2'> +9.9042876e+02 </wgt>
<wgt id='3'> +5.0481800e+02 </wgt>
<wgt id='4'> +7.0030357e+02 </wgt>
<wgt id='5'> +4.5323196e+02 </wgt>
<wgt id='6'> +6.2176841e+02 </wgt>
<wgt id='7'> +8.7978530e+02 </wgt>
<wgt id='8'> +4.4312868e+02 </wgt>
<wgt id='9'> +6.2176842e+02 </wgt>
<wgt id='10'> +3.9835982e+02 </wgt>
<wgt id='11'> +5.4578761e+02 </wgt>
<wgt id='12'> +7.8103066e+02 </wgt>
<wgt id='13'> +3.9101546e+02 </wgt>
<wgt id='14'> +5.4578762e+02 </wgt>
<wgt id='15'> +3.5224882e+02 </wgt>
<wgt id='16'> +5.6858122e+02 </wgt>
<wgt id='17'> +7.8423178e+02 </wgt>
<wgt id='18'> +4.2399929e+02 </wgt>
<wgt id='19'> +5.6858123e+02 </wgt>
<wgt id='20'> +3.8287803e+02 </wgt>
<wgt id='21'> +6.9662314e+02 </wgt>
<wgt id='22'> +3.7218610e+02 </wgt>
<wgt id='23'> +5.0481800e+02 </wgt>
<wgt id='24'> +3.3652354e+02 </wgt>
<wgt id='25'> +4.4312867e+02 </wgt>
<wgt id='26'> +6.1842819e+02 </wgt>
<wgt id='27'> +3.2841594e+02 </wgt>
<wgt id='28'> +4.4312868e+02 </wgt>
<wgt id='29'> +2.9757022e+02 </wgt>
<wgt id='30'> +4.7755435e+02 </wgt>
<wgt id='31'> +6.3705770e+02 </wgt>
<wgt id='32'> +3.6135120e+02 </wgt>
<wgt id='33'> +4.7755435e+02 </wgt>
<wgt id='34'> +3.2771192e+02 </wgt>
<wgt id='35'> +4.2399928e+02 </wgt>
<wgt id='36'> +5.6589027e+02 </wgt>
<wgt id='37'> +3.1719368e+02 </wgt>
<wgt id='38'> +4.2399929e+02 </wgt>
<wgt id='39'> +2.8803631e+02 </wgt>
<wgt id='40'> +3.7218609e+02 </wgt>
<wgt id='41'> +5.0236990e+02 </wgt>
<wgt id='42'> +2.7989079e+02 </wgt>
<wgt id='43'> +3.7218610e+02 </wgt>
<wgt id='44'> +2.5469549e+02 </wgt>
<wgt id='45'> +5.0481800e+02 </wgt>
<wgt id='46'> +5.1267439e+02 </wgt>
<wgt id='47'> +5.6524995e+02 </wgt>
<wgt id='48'> +5.0450202e+02 </wgt>
<wgt id='49'> +4.4525245e+02 </wgt>
<wgt id='50'> +5.8979292e+02 </wgt>
<wgt id='51'> +4.7169037e+02 </wgt>
<wgt id='52'> +4.2596689e+02 </wgt>
<wgt id='53'> +5.4024107e+02 </wgt>
<wgt id='54'> +5.4121769e+02 </wgt>
<wgt id='55'> +6.2444995e+02 </wgt>
<wgt id='56'> +4.9587848e+02 </wgt>
<wgt id='57'> +5.4770592e+02 </wgt>
<wgt id='58'> +4.3097363e+02 </wgt>
<wgt id='59'> +5.4812022e+02 </wgt>
<wgt id='60'> +4.8981326e+02 </wgt>
<wgt id='61'> +3.9647358e+02 </wgt>
<wgt id='62'> +4.3780695e+02 </wgt>
<wgt id='63'> +5.4167151e+02 </wgt>
<wgt id='64'> +5.0920804e+02 </wgt>
<wgt id='65'> +3.9697866e+02 </wgt>
<wgt id='66'> +5.2376792e+02 </wgt>
<wgt id='67'> +5.0395506e+02 </wgt>
<wgt id='68'> +7.0015202e+02 </wgt>
<wgt id='69'> +5.9367784e+02 </wgt>
<wgt id='70'> +6.2516319e+02 </wgt>
<wgt id='71'> +4.3509777e+02 </wgt>
<wgt id='72'> +4.2494665e+02 </wgt>
<wgt id='73'> +4.4218026e+02 </wgt>
<wgt id='74'> +6.4272521e+02 </wgt>
<wgt id='75'> +6.1397858e+02 </wgt>
<wgt id='76'> +5.2034414e+02 </wgt>
<wgt id='77'> +4.4536956e+02 </wgt>
<wgt id='78'> +4.0852785e+02 </wgt>
<wgt id='79'> +5.7823929e+02 </wgt>
<wgt id='80'> +4.0382165e+02 </wgt>
<wgt id='81'> +5.5511258e+02 </wgt>
<wgt id='82'> +5.0325746e+02 </wgt>
<wgt id='83'> +5.0031709e+02 </wgt>
<wgt id='84'> +4.5350862e+02 </wgt>
<wgt id='85'> +4.2088700e+02 </wgt>
<wgt id='86'> +5.5911128e+02 </wgt>
<wgt id='87'> +4.7985754e+02 </wgt>
<wgt id='88'> +5.1407003e+02 </wgt>
<wgt id='89'> +3.4421133e+02 </wgt>
<wgt id='90'> +4.2046194e+02 </wgt>
<wgt id='91'> +3.8557898e+02 </wgt>
<wgt id='92'> +4.7865440e+02 </wgt>
<wgt id='93'> +5.2498427e+02 </wgt>
<wgt id='94'> +4.4601974e+02 </wgt>
<wgt id='95'> +5.2893642e+02 </wgt>
<wgt id='96'> +5.1985271e+02 </wgt>
<wgt id='97'> +4.2706235e+02 </wgt>
<wgt id='98'> +6.0211287e+02 </wgt>
<wgt id='99'> +3.8447169e+02 </wgt>
<wgt id='100'> +3.3105195e+02 </wgt>
<wgt id='101'> +6.0491498e+02 </wgt>
<wgt id='102'> +5.9275863e+02 </wgt>
<wgt id='103'> +4.3329885e+02 </wgt>
<wgt id='104'> +5.6682049e+02 </wgt>
<wgt id='105'> +5.1402046e+02 </wgt>
<wgt id='106'> +5.1661919e+02 </wgt>
<wgt id='107'> +5.1798820e+02 </wgt>
<wgt id='108'> +4.7628069e+02 </wgt>
<wgt id='109'> +5.0761305e+02 </wgt>
<wgt id='110'> +4.2033817e+02 </wgt>
<wgt id='111'> +4.7759149e+02 </wgt>
<wgt id='112'> +5.3398120e+02 </wgt>
<wgt id='113'> +6.0373553e+02 </wgt>
<wgt id='114'> +5.1060826e+02 </wgt>
<wgt id='115'> +4.7388582e+02 </wgt>
<wgt id='116'> +5.7668977e+02 </wgt>
<wgt id='117'> +5.0949705e+02 </wgt>
<wgt id='118'> +5.0204433e+02 </wgt>
<wgt id='119'> +5.7136158e+02 </wgt>
<wgt id='120'> +4.9963417e+02 </wgt>
<wgt id='121'> +4.6902913e+02 </wgt>
<wgt id='122'> +4.8046728e+02 </wgt>
<wgt id='123'> +4.5208388e+02 </wgt>
<wgt id='124'> +5.6482778e+02 </wgt>
<wgt id='125'> +7.0804632e+02 </wgt>
<wgt id='126'> +4.7825579e+02 </wgt>
<wgt id='127'> +4.5490022e+02 </wgt>
<wgt id='128'> +5.0697688e+02 </wgt>
<wgt id='129'> +4.7738527e+02 </wgt>
<wgt id='130'> +5.1193188e+02 </wgt>
<wgt id='131'> +4.2780987e+02 </wgt>
<wgt id='132'> +5.4169164e+02 </wgt>
<wgt id='133'> +5.6587156e+02 </wgt>
<wgt id='134'> +5.6166396e+02 </wgt>
<wgt id='135'> +4.6807593e+02 </wgt>
<wgt id='136'> +6.2428505e+02 </wgt>
<wgt id='137'> +5.9172376e+02 </wgt>
<wgt id='138'> +5.5206327e+02 </wgt>
<wgt id='139'> +5.2470612e+02 </wgt>
<wgt id='140'> +4.8412523e+02 </wgt>
<wgt id='141'> +6.4701737e+02 </wgt>
<wgt id='142'> +2.5193262e+02 </wgt>
<wgt id='143'> +5.1038864e+02 </wgt>
<wgt id='144'> +4.3353135e+02 </wgt>
<wgt id='145'> +4.5028088e+02 </wgt>
</rwgt>
</event>
<event>
 4      1 +5.0481800e+02 1.88047400e+02 7.54677100e-03 1.16023400e-01
       21 -1    0    0  503  502 +0.0000000000e+00 +0.0000000000e+00 +6.8358185231e+01 6.8358185231e+01 0.0000000000e+00 0.0000e+00 -1.0000e+00
       21 -1    0    0  501  503 -0.0000000000e+00 -0.0000000000e+00 -5.9843293979e+02 5.9843293979e+02 0.0000000000e+00 0.0000e+00 1.0000e+00
        6  1    1    2  501    0 +6.8828965756e+01 -2.6370618872e+01 -3.8779399856e+02 4.3098262306e+02 1.7300000000e+02 0.0000e+00 1.0000e+00
       -6  1    1    2    0  502 -6.8828965756e+01 +2.6370618872e+01 -1.4228075600e+02 2.3580850196e+02 1.7300000000e+02 0.0000e+00 -1.0000e+00
<mgrwt>
<rscale>  2 0.18804743E+03</rscale>
<asrwt>0</asrwt>
<pdfrwt beam="1">  1       21 0.10516644E-01 0.18804743E+03</pdfrwt>
<pdfrwt beam="2">  1       21 0.92066601E-01 0.18804743E+03</pdfrwt>
<totfact> 0.74128802E+04</totfact>
</mgrwt>
<rwgt>
<wgt id='1'> +6.4992524e+02 </wgt>
<wgt id='2'> +6.4877080e+02 </wgt>
<wgt id='3'> +5.0481800e+02 </wgt>
<wgt id='4'> +6.4992524e+02 </wgt>
<wgt id='5'> +4.9201950e+02 </wgt>
<wgt id='6'> +6.2018078e+02 </wgt>
<wgt id='7'> +6.1900217e+02 </wgt>
<wgt id='8'> +4.7289989e+02 </wgt>
<wgt id='9'> +6.2018077e+02 </wgt>
<wgt id='10'> +4.6069620e+02 </wgt>
<wgt id='11'> +5.8096862e+02 </wgt>
<wgt id='12'> +5.7983913e+02 </wgt>
<wgt id='13'> +4.4263690e+02 </wgt>
<wgt id='14'> +5.8096862e+02 </wgt>
<wgt id='15'> +4.3121193e+02 </wgt>
<wgt id='16'> +5.2902956e+02 </wgt>
<wgt id='17'> +5.2820627e+02 </wgt>
<wgt id='18'> +4.2471464e+02 </wgt>
<wgt id='19'> +5.2902955e+02 </wgt>
<wgt id='20'> +4.1473535e+02 </wgt>
<wgt id='21'> +5.0396970e+02 </wgt>
<wgt id='22'> +3.9786122e+02 </wgt>
<wgt id='23'> +5.0481800e+02 </wgt>
<wgt id='24'> +3.8833216e+02 </wgt>
<wgt id='25'> +4.7289989e+02 </wgt>
<wgt id='26'> +4.7208454e+02 </wgt>
<wgt id='27'> +3.7240029e+02 </wgt>
<wgt id='28'> +4.7289989e+02 </wgt>
<wgt id='29'> +3.6347915e+02 </wgt>
<wgt id='30'> +4.4508436e+02 </wgt>
<wgt id='31'> +4.4445300e+02 </wgt>
<wgt id='32'> +3.6232272e+02 </wgt>
<wgt id='33'> +4.4508436e+02 </wgt>
<wgt id='34'> +3.5427604e+02 </wgt>
<wgt id='35'> +4.2471464e+02 </wgt>
<wgt id='36'> +4.2405942e+02 </wgt>
<wgt id='37'> +3.3941415e+02 </wgt>
<wgt id='38'> +4.2471464e+02 </wgt>
<wgt id='39'> +3.3172186e+02 </wgt>
<wgt id='40'> +3.9786122e+02 </wgt>
<wgt id='41'> +3.9723002e+02 </wgt>
<wgt id='42'> +3.1769351e+02 </wgt>
<wgt id='43'> +3.9786122e+02 </wgt>
<wgt id='44'> +3.1049187e+02 </wgt>
<wgt id='45'> +5.0481800e+02 </wgt>
<wgt id='46'> +5.1245865e+02 </wgt>
<wgt id='47'> +5.1870814e+02 </wgt>
<wgt id='48'> +5.0694338e+02 </wgt>
<wgt id='49'> +4.9803750e+02 </wgt>
<wgt id='50'> +5.9050686e+02 </wgt>
<wgt id='51'> +4.9298804e+02 </wgt>
<wgt id='52'> +5.0370202e+02 </wgt>
<wgt id='53'> +5.0068931e+02 </wgt>
<wgt id='54'> +5.1193753e+02 </wgt>
<wgt id='55'> +4.7676789e+02 </wgt>
<wgt id='56'> +4.6551456e+02 </wgt>
<wgt id='57'> +5.0514147e+02 </wgt>
<wgt id='58'> +4.9843874e+02 </wgt>
<wgt id='59'> +5.1881580e+02 </wgt>
<wgt id='60'> +5.0144917e+02 </wgt>
<wgt id='61'> +4.5385808e+02 </wgt>
<wgt id='62'> +4.9537094e+02 </wgt>
<wgt id='63'> +5.0706131e+02 </wgt>
<wgt id='64'> +4.9739262e+02 </wgt>
<wgt id='65'> +5.6048516e+02 </wgt>
<wgt id='66'> +4.9566353e+02 </wgt>
<wgt id='67'> +5.0793149e+02 </wgt>
<wgt id='68'> +5.5167609e+02 </wgt>
<wgt id='69'> +4.9994724e+02 </wgt>
<wgt id='70'> +4.9932074e+02 </wgt>
<wgt id='71'> +5.0992198e+02 </wgt>
<wgt id='72'> +4.9015858e+02 </wgt>
<wgt id='73'> +4.9161213e+02 </wgt>
<wgt id='74'> +5.2983091e+02 </wgt>
<wgt id='75'> +5.1550379e+02 </wgt>
<wgt id='76'> +4.9828343e+02 </wgt>
<wgt id='77'> +4.9355447e+02 </wgt>
<wgt id='78'> +4.8731207e+02 </wgt>
<wgt id='79'> +4.9719421e+02 </wgt>
<wgt id='80'> +4.9285714e+02 </wgt>
<wgt id='81'> +4.9681166e+02 </wgt>
<wgt id='82'> +5.0123729e+02 </wgt>
<wgt id='83'> +5.0943268e+02 </wgt>
<wgt id='84'> +5.3990516e+02 </wgt>
<wgt id='85'> +5.1517929e+02 </wgt>
<wgt id='86'> +5.0551032e+02 </wgt>
<wgt id='87'> +5.0721566e+02 </wgt>
<wgt id='88'> +5.0633544e+02 </wgt>
<wgt id='89'> +5.1057043e+02 </wgt>
<wgt id='90'> +5.1320478e+02 </wgt>
<wgt id='91'> +5.1863167e+02 </wgt>
<wgt id='92'> +4.6683789e+02 </wgt>
<wgt id='93'> +5.0107587e+02 </wgt>
<wgt id='94'> +4.9391042e+02 </wgt>
<wgt id='95'> +4.9804836e+02 </wgt>
<wgt id='96'> +5.3722913e+02 </wgt>
<wgt id='97'> +5.0141272e+02 </wgt>
<wgt id='98'> +4.9265869e+02 </wgt>
<wgt id='99'> +4.8150123e+02 </wgt>
<wgt id='100'> +4.7798440e+02 </wgt>
<wgt id='101'> +5.4909469e+02 </wgt>
<wgt id='102'> +5.1254659e+02 </wgt>
<wgt id='103'> +5.4072491e+02 </wgt>
<wgt id='104'> +5.0733478e+02 </wgt>
<wgt id='105'> +5.2232003e+02 </wgt>
<wgt id='106'> +4.6596156e+02 </wgt>
<wgt id='107'> +4.8730313e+02 </wgt>
<wgt id='108'> +4.5138591e+02 </wgt>
<wgt id='109'> +4.7844492e+02 </wgt>
<wgt id='110'> +5.0182103e+02 </wgt>
<wgt id='111'> +4.9234349e+02 </wgt>
<wgt id='112'> +4.8146230e+02 </wgt>
<wgt id='113'> +4.7108314e+02 </wgt>
<wgt id='114'> +4.9840859e+02 </wgt>
<wgt id='115'> +4.8359946e+02 </wgt>
<wgt id='116'> +5.1684209e+02 </wgt>
<wgt id='117'> +5.0106465e+02 </wgt>
<wgt id='118'> +5.2457488e+02 </wgt>
<wgt id='119'> +4.9430116e+02 </wgt>
<wgt id='120'> +4.9431013e+02 </wgt>
<wgt id='121'> +4.9660427e+02 </wgt>
<wgt id='122'> +4.9966128e+02 </wgt>
<wgt id='123'> +5.0669091e+02 </wgt>
<wgt id='124'> +5.5113487e+02 </wgt>
<wgt id='125'> +5.5654341e+02 </wgt>
<wgt id='126'> +5.1860856e+02 </wgt>
<wgt id='127'> +5.1636786e+02 </wgt>
<wgt id='128'> +4.6244126e+02 </wgt>
<wgt id='129'> +5.6265515e+02 </wgt>
<wgt id='130'> +4.9962471e+02 </wgt>
<wgt id='131'> +5.2640859e+02 </wgt>
<wgt id='132'> +5.2462088e+02 </wgt>
<wgt id='133'> +5.1468233e+02 </wgt>
<wgt id='134'> +4.9003568e+02 </wgt>
<wgt id='135'> +5.1200239e+02 </wgt>
<wgt id='136'> +5.1581072e+02 </wgt>
<wgt id='137'> +4.8270112e+02 </wgt>
<wgt id='138'> +4.7060705e+02 </wgt>
<wgt id='139'> +5.1837157e+02 </wgt>
<wgt id='140'> +5.2171478e+02 </wgt>
<wgt id='141'> +5.1137730e+02 </wgt>
<wgt id='142'> +4.8169610e+02 </wgt>
<wgt id='143'> +5.1266308e+02 </wgt>
<wgt id='144'> +4.9758061e+02 </wgt>
<wgt id='145'> +5.0124829e+02 </wgt>
</rwgt>
</event>
<event>
 4      1 +5.0481800e+02 1.78373200e+02 7.54677100e-03 1.16938700e-01
       21 -1    0    0  503  502 +0.0000000000e+00 +0.0000000000e+00 +2.2865812607e+02 2.2865812607e+02 0.0000000000e+00 0.0000e+00 -1.0000e+00
       21 -1    0    0  501  503 -0.0000000000e+00 -0.0000000000e+00 -1.3967180690e+02 1.3967180690e+02 0.0000000000e+00 0.0000e+00 -1.0000e+00
        6  1    1    2  501    0 -4.0651376656e+01 +1.5344350630e+01 +5.5787193913e+01 1.8689353794e+02 1.7300000000e+02 0.0000e+00 -1.0000e+00
       -6  1    1    2    0  502 +4.0651376656e+01 -1.5344350630e+01 +3.3199125256e+01 1.8143639502e+02 1.7300000000e+02 0.0000e+00 -1.0000e+00
<mgrwt>
<rscale>  2 0.17837316E+03</rscale>
<asrwt>0</asrwt>
<pdfrwt beam="1">  1       21 0.35178173E-01 0.17837316E+03</pdfrwt>
<pdfrwt beam="2">  1       21 0.21487970E-01 0.17837316E+03</pdfrwt>
<totfact> 0.15790655E+05</totfact>
</mgrwt>
<rwgt>
<wgt id='1'> +6.3960969e+02 </wgt>
<wgt id='2'> +5.6215195e+02 </wgt>
<wgt id='3'> +5.0481800e+02 </wgt>
<wgt id='4'> +6.3960969e+02 </wgt>
<wgt id='5'> +5.0450296e+02 </wgt>
<wgt id='6'> +6.2170917e+02 </wgt>
<wgt id='7'> +5.3982204e+02 </wgt>
<wgt id='8'> +4.8061151e+02 </wgt>
<wgt id='9'> +6.2170918e+02 </wgt>
<wgt id='10'> +4.8029829e+02 </wgt>
<wgt id='11'> +5.9189764e+02 </wgt>
<wgt id='12'> +5.1295403e+02 </wgt>
<wgt id='13'> +4.5634508e+02 </wgt>
<wgt id='14'> +5.9189764e+02 </wgt>
<wgt id='15'> +4.5604601e+02 </wgt>
<wgt id='16'> +5.1935293e+02 </wgt>
<wgt id='17'> +4.6540467e+02 </wgt>
<wgt id='18'> +4.2402635e+02 </wgt>
<wgt id='19'> +5.1935293e+02 </wgt>
<wgt id='20'> +4.2378756e+02 </wgt>
<wgt id='21'> +4.4691778e+02 </wgt>
<wgt id='22'> +4.0369389e+02 </wgt>
<wgt id='23'> +5.0481800e+02 </wgt>
<wgt id='24'> +4.0345540e+02 </wgt>
<wgt id='25'> +4.8061151e+02 </wgt>
<wgt id='26'> +4.2467379e+02 </wgt>
<wgt id='27'> +3.8331108e+02 </wgt>
<wgt id='28'> +4.8061151e+02 </wgt>
<wgt id='29'> +3.8308323e+02 </wgt>
<wgt id='30'> +4.3623509e+02 </wgt>
<wgt id='31'> +3.9422720e+02 </wgt>
<wgt id='32'> +3.6138730e+02 </wgt>
<wgt id='33'> +4.3623509e+02 </wgt>
<wgt id='34'> +3.6119627e+02 </wgt>
<wgt id='35'> +4.2402634e+02 </wgt>
<wgt id='36'> +3.7856763e+02 </wgt>
<wgt id='37'> +3.4405844e+02 </wgt>
<wgt id='38'> +4.2402635e+02 </wgt>
<wgt id='39'> +3.4386707e+02 </wgt>
<wgt id='40'> +4.0369389e+02 </wgt>
<wgt id='41'> +3.5972557e+02 </wgt>
<wgt id='42'> +3.2668668e+02 </wgt>
<wgt id='43'> +4.0369389e+02 </wgt>
<wgt id='44'> +3.2650377e+02 </wgt>
<wgt id='45'> +5.0481800e+02 </wgt>
<wgt id='46'> +4.9940296e+02 </wgt>
<wgt id='47'> +5.1930813e+02 </wgt>
<wgt id='48'> +5.0276614e+02 </wgt>
<wgt id='49'> +5.0425336e+02 </wgt>
<wgt id='50'> +5.7270981e+02 </wgt>
<wgt id='51'> +4.9516723e+02 </wgt>
<wgt id='52'> +5.0060353e+02 </wgt>
<wgt id='53'> +5.1515717e+02 </wgt>
<wgt id='54'> +5.0762707e+02 </wgt>
<wgt id='55'> +4.5297261e+02 </wgt>
<wgt id='56'> +4.7635440e+02 </wgt>
<wgt id='57'> +4.9159452e+02 </wgt>
<wgt id='58'> +5.1346187e+02 </wgt>
<wgt id='59'> +4.9155686e+02 </wgt>
<wgt id='60'> +4.7906701e+02 </wgt>
<wgt id='61'> +5.0339490e+02 </wgt>
<wgt id='62'> +4.9721562e+02 </wgt>
<wgt id='63'> +5.0525826e+02 </wgt>
<wgt id='64'> +5.0540096e+02 </wgt>
<wgt id='65'> +5.9494322e+02 </wgt>
<wgt id='66'> +4.9184972e+02 </wgt>
<wgt id='67'> +5.0939153e+02 </wgt>
<wgt id='68'> +5.3357903e+02 </wgt>
<wgt id='69'> +4.8568727e+02 </wgt>
<wgt id='70'> +4.9772210e+02 </wgt>
<wgt id='71'> +5.1463527e+02 </wgt>
<wgt id='72'> +5.0120571e+02 </wgt>
<wgt id='73'> +5.0104549e+02 </wgt>
<wgt id='74'> +5.1349885e+02 </wgt>
<wgt id='75'> +5.1425234e+02 </wgt>
<wgt id='76'> +4.9174547e+02 </wgt>
<wgt id='77'> +4.8307083e+02 </wgt>
<wgt id='78'> +5.1161314e+02 </wgt>
<wgt id='79'> +4.8096433e+02 </wgt>
<wgt id='80'> +5.0287304e+02 </wgt>
<wgt id='81'> +4.9794935e+02 </wgt>
<wgt id='82'> +5.2176892e+02 </wgt>
<wgt id='83'> +5.1217837e+02 </wgt>
<wgt id='84'> +5.5070918e+02 </wgt>
<wgt id='85'> +5.3091384e+02 </wgt>
<wgt id='86'> +4.9803348e+02 </wgt>
<wgt id='87'> +5.0274353e+02 </wgt>
<wgt id='88'> +5.1172504e+02 </wgt>
<wgt id='89'> +5.1391795e+02 </wgt>
<wgt id='90'> +5.0830922e+02 </wgt>
<wgt id='91'> +5.3854050e+02 </wgt>
<wgt id='92'> +4.7545594e+02 </wgt>
<wgt id='93'> +4.9305742e+02 </wgt>
<wgt id='94'> +5.0638635e+02 </wgt>
<wgt id='95'> +4.8694222e+02 </wgt>
<wgt id='96'> +5.3747932e+02 </wgt>
<wgt id='97'> +5.1603508e+02 </wgt>
<wgt id='98'> +4.8056119e+02 </wgt>
<wgt id='99'> +4.9278082e+02 </wgt>
<wgt id='100'> +5.1093011e+02 </wgt>
<wgt id='101'> +5.1833576e+02 </wgt>
<wgt id='102'> +4.8064914e+02 </wgt>
<wgt id='103'> +5.4283564e+02 </wgt>
<wgt id='104'> +5.0094744e+02 </wgt>
<wgt id='105'> +5.2856348e+02 </wgt>
<wgt id='106'> +4.7436692e+02 </wgt>
<wgt id='107'> +5.0846256e+02 </wgt>
<wgt id='108'> +4.6234540e+02 </wgt>
<wgt id='109'> +4.8039390e+02 </wgt>
<wgt id='110'> +5.0772282e+02 </wgt>
<wgt id='111'> +4.9521431e+02 </wgt>
<wgt id='112'> +4.8744314e+02 </wgt>
<wgt id='113'> +4.6854010e+02 </wgt>
<wgt id='114'> +5.1326188e+02 </wgt>
<wgt id='115'> +5.1603342e+02 </wgt>
<wgt id='116'> +4.9586563e+02 </wgt>
<wgt id='117'> +5.1506219e+02 </wgt>
<wgt id='118'> +5.0968068e+02 </wgt>
<wgt id='119'> +4.8833302e+02 </wgt>
<wgt id='120'> +5.0916344e+02 </wgt>
<wgt id='121'> +4.9376073e+02 </wgt>
<wgt id='122'> +4.9950210e+02 </wgt>
<wgt id='123'> +5.0910594e+02 </wgt>
<wgt id='124'> +5.2863517e+02 </wgt>
<wgt id='125'> +5.3079345e+02 </wgt>
<wgt id='126'> +5.2046783e+02 </wgt>
<wgt id='127'> +5.1658602e+02 </wgt>
<wgt id='128'> +4.7454777e+02 </wgt>
<wgt id='129'> +5.6768904e+02 </wgt>
<wgt id='130'> +5.0703904e+02 </wgt>
<wgt id='131'> +5.4078939e+02 </wgt>
<wgt id='132'> +4.9322194e+02 </wgt>
<wgt id='133'> +4.9511214e+02 </wgt>
<wgt id='134'> +4.7386458e+02 </wgt>
<wgt id='135'> +5.1772041e+02 </wgt>
<wgt id='136'> +4.7930992e+02 </wgt>
<wgt id='137'> +4.7330436e+02 </wgt>
<wgt id='138'> +4.5251784e+02 </wgt>
<wgt id='139'> +5.1110076e+02 </wgt>
<wgt id='140'> +5.3997418e+02 </wgt>
<wgt id='141'> +5.0201708e+02 </wgt>
<wgt id='142'> +5.1624591e+02 </wgt>
<wgt id='143'> +4.9709728e+02 </wgt>
<wgt id='144'> +5.0892702e+02 </wgt>
<wgt id='145'> +5.0579903e+02 </wgt>
</rwgt>
</event>
<event>
 4      1 +5.0481800e+02 2.01024900e+02 7.54677100e-03 1.14887700e-01
       21 -1    0    0  501  502 +0.0000000000e+00 +0.0000000000e+00 +7.6554025917e+02 7.6554025917e+02 0.0000000000e+00 0.0000e+00 1.0000e+00
       21 -1    0    0  502  503 -0.0000000000e+00 -0.0000000000e+00 -1.3446371161e+02 1.3446371161e+02 0.0000000000e+00 0.0000e+00 -1.0000e+00
        6  1    1    2  501    0 -9.3094459335e+01 -4.2607817435e+01 +6.6625744679e+02 6.9592383913e+02 1.7300000000e+02 0.0000e+00 1.0000e+00
       -6  1    1    2    0  503 +9.3094459335e+01 +4.2607817435e+01 -3.5180899219e+01 2.0408013165e+02 1.7300000000e+02 0.0000e+00 -1.0000e+00
<mgrwt>
<rscale>  2 0.20102489E+03</rscale>
<asrwt>0</asrwt>
<pdfrwt beam="1">  1       21 0.11777542E+00 0.20102489E+03</pdfrwt>
<pdfrwt beam="2">  1       21 0.20686725E-01 0.20102489E+03</pdfrwt>
<totfact> 0.11915301E+04</totfact>
</mgrwt>
<rwgt>
<wgt id='1'> +6.7191856e+02 </wgt>
<wgt id='2'> +5.6925267e+02 </wgt>
<wgt id='3'> +5.0481800e+02 </wgt>
<wgt id='4'> +6.7191857e+02 </wgt>
<wgt id='5'> +4.2065362e+02 </wgt>
<wgt id='6'> +6.1811970e+02 </wgt>
<wgt id='7'> +5.1841525e+02 </wgt>
<wgt id='8'> +4.5829802e+02 </wgt>
<wgt id='9'> +6.1811971e+02 </wgt>
<wgt id='10'> +3.8257208e+02 </wgt>
<wgt id='11'> +5.6115874e+02 </wgt>
<wgt id='12'> +4.7135752e+02 </wgt>
<wgt id='13'> +4.1717465e+02 </wgt>
<wgt id='14'> +5.6115874e+02 </wgt>
<wgt id='15'> +3.4892018e+02 </wgt>
<wgt id='16'> +5.4875550e+02 </wgt>
<wgt id='17'> +4.7472842e+02 </wgt>
<wgt id='18'> +4.2546488e+02 </wgt>
<wgt id='19'> +5.4875550e+02 </wgt>
<wgt id='20'> +3.5780138e+02 </wgt>
<wgt id='21'> +4.3233255e+02 </wgt>
<wgt id='22'> +3.8625744e+02 </wgt>
<wgt id='23'> +5.0481800e+02 </wgt>
<wgt id='24'> +3.2540982e+02 </wgt>
<wgt id='25'> +4.5829801e+02 </wgt>
<wgt id='26'> +3.9308873e+02 </wgt>
<wgt id='27'> +3.5159832e+02 </wgt>
<wgt id='28'> +4.5829802e+02 </wgt>
<wgt id='29'> +2.9678604e+02 </wgt>
<wgt id='30'> +4.6249578e+02 </wgt>
<wgt id='31'> +4.0324892e+02 </wgt>
<wgt id='32'> +3.6340140e+02 </wgt>
<wgt id='33'> +4.6249578e+02 </wgt>
<wgt id='34'> +3.0805230e+02 </wgt>
<wgt id='35'> +4.2546488e+02 </wgt>
<wgt id='36'> +3.6723656e+02 </wgt>
<wgt id='37'> +3.2991324e+02 </wgt>
<wgt id='38'> +4.2546488e+02 </wgt>
<wgt id='39'> +2.8016450e+02 </wgt>
<wgt id='40'> +3.8625744e+02 </wgt>
<wgt id='41'> +3.3390166e+02 </wgt>
<wgt id='42'> +3.0030992e+02 </wgt>
<wgt id='43'> +3.8625744e+02 </wgt>
<wgt id='44'> +2.5552060e+02 </wgt>
<wgt id='45'> +5.0481800e+02 </wgt>
<wgt id='46'> +5.1940467e+02 </wgt>
<wgt id='47'> +5.2311907e+02 </wgt>
<wgt id='48'> +5.0955837e+02 </wgt>
<wgt id='49'> +4.9112180e+02 </wgt>
<wgt id='50'> +6.1548131e+02 </wgt>
<wgt id='51'> +4.8873836e+02 </wgt>
<wgt id='52'> +5.0011968e+02 </wgt>
<wgt id='53'> +4.9802184e+02 </wgt>
<wgt id='54'> +5.1782117e+02 </wgt>
<wgt id='55'> +4.8633247e+02 </wgt>
<wgt id='56'> +4.5867534e+02 </wgt>
<wgt id='57'> +5.1107973e+02 </wgt>
<wgt id='58'> +4.8474266e+02 </wgt>
<wgt id='59'> +5.2995042e+02 </wgt>
<wgt id='60'> +5.0380155e+02 </wgt>
<wgt id='61'> +4.3634567e+02 </wgt>
<wgt id='62'> +4.9094437e+02 </wgt>
<wgt id='63'> +5.1074143e+02 </wgt>
<wgt id='64'> +4.9488027e+02 </wgt>
<wgt id='65'> +5.5367118e+02 </wgt>
<wgt id='66'> +4.9806013e+02 </wgt>
<wgt id='67'> +5.0751027e+02 </wgt>
<wgt id='68'> +5.6831595e+02 </wgt>
<wgt id='69'> +5.1406587e+02 </wgt>
<wgt id='70'> +5.0209117e+02 </wgt>
<wgt id='71'> +5.0411891e+02 </wgt>
<wgt id='72'> +4.7609132e+02 </wgt>
<wgt id='73'> +4.8073560e+02 </wgt>
<wgt id='74'> +5.4374760e+02 </wgt>
<wgt id='75'> +5.2164567e+02 </wgt>
<wgt id='76'> +5.0039492e+02 </wgt>
<wgt id='77'> +4.9321485e+02 </wgt>
<wgt id='78'> +4.7239105e+02 </wgt>
<wgt id='79'> +5.0464018e+02 </wgt>
<wgt id='80'> +4.8303217e+02 </wgt>
<wgt id='81'> +4.9674750e+02 </wgt>
<wgt id='82'> +4.9306179e+02 </wgt>
<wgt id='83'> +5.1147315e+02 </wgt>
<wgt id='84'> +5.3993107e+02 </wgt>
<wgt id='85'> +5.0667512e+02 </wgt>
<wgt id='86'> +5.1234791e+02 </wgt>
<wgt id='87'> +5.0799806e+02 </wgt>
<wgt id='88'> +5.0655168e+02 </wgt>
<wgt id='89'> +5.0113333e+02 </wgt>
<wgt id='90'> +5.0934363e+02 </wgt>
<wgt id='91'> +5.0586379e+02 </wgt>
<wgt id='92'> +4.5455345e+02 </wgt>
<wgt id='93'> +5.0441390e+02 </wgt>
<wgt id='94'> +4.8337632e+02 </wgt>
<wgt id='95'> +5.0240179e+02 </wgt>
<wgt id='96'> +5.4439849e+02 </wgt>
<wgt id='97'> +4.9155549e+02 </wgt>
<wgt id='98'> +5.0033785e+02 </wgt>
<wgt id='99'> +4.6746427e+02 </wgt>
<wgt id='100'> +4.5113964e+02 </wgt>
<wgt id='101'> +5.6969786e+02 </wgt>
<wgt id='102'> +5.3163913e+02 </wgt>
<wgt id='103'> +5.3855811e+02 </wgt>
<wgt id='104'> +5.1657786e+02 </wgt>
<wgt id='105'> +5.1930756e+02 </wgt>
<wgt id='106'> +4.5801674e+02 </wgt>
<wgt id='107'> +4.7588335e+02 </wgt>
<wgt id='108'> +4.4310785e+02 </wgt>
<wgt id='109'> +4.7560613e+02 </wgt>
<wgt id='110'> +4.9340989e+02 </wgt>
<wgt id='111'> +4.8975206e+02 </wgt>
<wgt id='112'> +4.8307405e+02 </wgt>
<wgt id='113'> +4.7209437e+02 </wgt>
<wgt id='114'> +4.9624494e+02 </wgt>
<wgt id='115'> +4.7398204e+02 </wgt>
<wgt id='116'> +5.3215471e+02 </wgt>
<wgt id='117'> +4.9748716e+02 </wgt>
<wgt id='118'> +5.3320618e+02 </wgt>
<wgt id='119'> +4.9962077e+02 </wgt>
<wgt id='120'> +4.9620441e+02 </wgt>
<wgt id='121'> +4.9485645e+02 </wgt>
<wgt id='122'> +4.9794687e+02 </wgt>
<wgt id='123'> +5.0684819e+02 </wgt>
<wgt id='124'> +5.6783000e+02 </wgt>
<wgt id='125'> +5.7998334e+02 </wgt>
<wgt id='126'> +5.1903163e+02 </wgt>
<wgt id='127'> +5.1475335e+02 </wgt>
<wgt id='128'> +4.5959893e+02 </wgt>
<wgt id='129'> +5.6238627e+02 </wgt>
<wgt id='130'> +4.9907990e+02 </wgt>
<wgt id='131'> +5.1754200e+02 </wgt>
<wgt id='132'> +5.3581743e+02 </wgt>
<wgt id='133'> +5.2701777e+02 </wgt>
<wgt id='134'> +4.9545442e+02 </wgt>
<wgt id='135'> +5.0741402e+02 </wgt>
<wgt id='136'> +5.3429839e+02 </wgt>
<wgt id='137'> +4.9000903e+02 </wgt>
<wgt id='138'> +4.8374962e+02 </wgt>
<wgt id='139'> +5.2175615e+02 </wgt>
<wgt id='140'> +5.1470234e+02 </wgt>
<wgt id='141'> +5.2304229e+02 </wgt>
<wgt id='142'> +4.5476129e+02 </wgt>
<wgt id='143'> +5.1594244e+02 </wgt>
<wgt id='144'> +4.8557216e+02 </wgt>
<wgt id='145'> +4.9491040e+02 </wgt>
</rwgt>
</event>
<event>
 4      1 +5.0481800e+02 2.14673100e+02 7.54677100e-03 1.13791800e-01
        2 -1    0    0  502    0 +0.0000000000e+00 +0.0000000000e+00 +5.4063167088e+02 5.4063167088e+02 0.0000000000e+00 0.0000e+00 -1.0000e+00
       -2 -1    0    0    0  501 -0.0000000000e+00 -0.0000000000e+00 -1.2236042531e+02 1.2236042531e+02 0.0000000000e+00 0.0000e+00 1.0000e+00
        6  1    1    2  502    0 +1.0310389734e+02 -7.4331056240e+01 +3.9171540968e+02 4.4668275291e+02 1.7300000000e+02 0.0000e+00 -1.0000e+00
       -6  1    1    2    0  501 -1.0310389734e+02 +7.4331056240e+01 +2.6555835893e+01 2.1630934328e+02 1.7300000000e+02 0.0000e+00 1.0000e+00
<mgrwt>
<rscale>  2 0.21467305E+03</rscale>
<asrwt>0</asrwt>
<pdfrwt beam="1">  1        2 0.83174102E-01 0.21467305E+03</pdfrwt>
<pdfrwt beam="2">  1       -2 0.18824681E-01 0.21467305E+03</pdfrwt>
<totfact> 0.13255344E+03</totfact>
</mgrwt>
<rwgt>
<wgt id='1'> +6.0877387e+02 </wgt>
<wgt id='2'> +5.3150624e+02 </wgt>
<wgt id='3'> +5.0481800e+02 </wgt>
<wgt id='4'> +6.0877387e+02 </wgt>
<wgt id='5'> +4.8327735e+02 </wgt>
<wgt id='6'> +6.1585041e+02 </wgt>
<wgt id='7'> +5.3529480e+02 </wgt>
<wgt id='8'> +5.0756420e+02 </wgt>
<wgt id='9'> +6.1585041e+02 </wgt>
<wgt id='10'> +4.8524290e+02 </wgt>
<wgt id='11'> +6.1920062e+02 </wgt>
<wgt id='12'> +5.3634299e+02 </wgt>
<wgt id='13'> +5.0791286e+02 </wgt>
<wgt id='14'> +6.1920062e+02 </wgt>
<wgt id='15'> +4.8507379e+02 </wgt>
<wgt id='16'> +4.9901730e+02 </wgt>
<wgt id='17'> +4.4614403e+02 </wgt>
<wgt id='18'> +4.2603643e+02 </wgt>
<wgt id='19'> +4.9901730e+02 </wgt>
<wgt id='20'> +4.0930949e+02 </wgt>
<wgt id='21'> +4.4932413e+02 </wgt>
<wgt id='22'> +4.2835406e+02 </wgt>
<wgt id='23'> +5.0481800e+02 </wgt>
<wgt id='24'> +4.1097421e+02 </wgt>
<wgt id='25'> +5.0756420e+02 </wgt>
<wgt id='26'> +4.5020398e+02 </wgt>
<wgt id='27'> +4.2864831e+02 </wgt>
<wgt id='28'> +5.0756420e+02 </wgt>
<wgt id='29'> +4.1083098e+02 </wgt>
<wgt id='30'> +4.2114099e+02 </wgt>
<wgt id='31'> +3.8009579e+02 </wgt>
<wgt id='32'> +3.6431697e+02 </wgt>
<wgt id='33'> +4.2114099e+02 </wgt>
<wgt id='34'> +3.5111087e+02 </wgt>
<wgt id='35'> +4.2603643e+02 </wgt>
<wgt id='36'> +3.8280510e+02 </wgt>
<wgt id='37'> +3.6629885e+02 </wgt>
<wgt id='38'> +4.2603643e+02 </wgt>
<wgt id='39'> +3.5253888e+02 </wgt>
<wgt id='40'> +4.2835406e+02 </wgt>
<wgt id='41'> +3.8355469e+02 </wgt>
<wgt id='42'> +3.6655047e+02 </wgt>
<wgt id='43'> +4.2835406e+02 </wgt>
<wgt id='44'> +3.5241602e+02 </wgt>
<wgt id='45'> +5.0481800e+02 </wgt>
<wgt id='46'> +5.0859745e+02 </wgt>
<wgt id='47'> +4.8835322e+02 </wgt>
<wgt id='48'> +4.9436887e+02 </wgt>
<wgt id='49'> +5.0421351e+02 </wgt>
<wgt id='50'> +4.5423071e+02 </wgt>
<wgt id='51'> +5.1572398e+02 </wgt>
<wgt id='52'> +4.9472667e+02 </wgt>
<wgt id='53'> +5.1469455e+02 </wgt>
<wgt id='54'> +4.9206583e+02 </wgt>
<wgt id='55'> +4.8276982e+02 </wgt>
<wgt id='56'> +5.4567516e+02 </wgt>
<wgt id='57'> +4.9491496e+02 </wgt>
<wgt id='58'> +5.1389409e+02 </wgt>
<wgt id='59'> +4.8808223e+02 </wgt>
<wgt id='60'> +5.0419852e+02 </wgt>
<wgt id='61'> +5.5381968e+02 </wgt>
<wgt id='62'> +5.3301953e+02 </wgt>
<wgt id='63'> +5.1667517e+02 </wgt>
<wgt id='64'> +4.9658243e+02 </wgt>
<wgt id='65'> +4.8502175e+02 </wgt>
<wgt id='66'> +5.3250790e+02 </wgt>
<wgt id='67'> +5.1903936e+02 </wgt>
<wgt id='68'> +4.1802595e+02 </wgt>
<wgt id='69'> +4.7390366e+02 </wgt>
<wgt id='70'> +4.9136769e+02 </wgt>
<wgt id='71'> +5.1820804e+02 </wgt>
<wgt id='72'> +5.1376223e+02 </wgt>
<wgt id='73'> +5.1491440e+02 </wgt>
<wgt id='74'> +4.5230170e+02 </wgt>
<wgt id='75'> +4.7533769e+02 </wgt>
<wgt id='76'> +5.2113234e+02 </wgt>
<wgt id='77'> +5.2559971e+02 </wgt>
<wgt id='78'> +5.2451640e+02 </wgt>
<wgt id='79'> +5.1062437e+02 </wgt>
<wgt id='80'> +5.4120173e+02 </wgt>
<wgt id='81'> +5.0381996e+02 </wgt>
<wgt id='82'> +5.0007956e+02 </wgt>
<wgt id='83'> +4.8144003e+02 </wgt>
<wgt id='84'> +5.0831233e+02 </wgt>
<wgt id='85'> +5.0268197e+02 </wgt>
<wgt id='86'> +5.1111355e+02 </wgt>
<wgt id='87'> +5.0910431e+02 </wgt>
<wgt id='88'> +5.0730260e+02 </wgt>
<wgt id='89'> +5.2665407e+02 </wgt>
<wgt id='90'> +5.5274452e+02 </wgt>
<wgt id='91'> +4.8155605e+02 </wgt>
<wgt id='92'> +5.3539274e+02 </wgt>
<wgt id='93'> +4.9455697e+02 </wgt>
<wgt id='94'> +5.1646744e+02 </wgt>
<wgt id='95'> +5.0301260e+02 </wgt>
<wgt id='96'> +4.9169818e+02 </wgt>
<wgt id='97'> +5.2181087e+02 </wgt>
<wgt id='98'> +5.1158360e+02 </wgt>
<wgt id='99'> +5.2963987e+02 </wgt>
<wgt id='100'> +5.5107484e+02 </wgt>
<wgt id='101'> +4.4419681e+02 </wgt>
<wgt id='102'> +4.7155669e+02 </wgt>
<wgt id='103'> +4.8903861e+02 </wgt>
<wgt id='104'> +4.9521145e+02 </wgt>
<wgt id='105'> +4.9334362e+02 </wgt>
<wgt id='106'> +5.3511340e+02 </wgt>
<wgt id='107'> +4.9657106e+02 </wgt>
<wgt id='108'> +5.5416760e+02 </wgt>
<wgt id='109'> +5.3104375e+02 </wgt>
<wgt id='110'> +5.2974212e+02 </wgt>
<wgt id='111'> +5.2361648e+02 </wgt>
<wgt id='112'> +5.1320838e+02 </wgt>
<wgt id='113'> +5.0923032e+02 </wgt>
<wgt id='114'> +5.0817095e+02 </wgt>
<wgt id='115'> +5.2907090e+02 </wgt>
<wgt id='116'> +4.9077259e+02 </wgt>
<wgt id='117'> +5.0481777e+02 </wgt>
<wgt id='118'> +4.7083092e+02 </wgt>
<wgt id='119'> +5.0783778e+02 </wgt>
<wgt id='120'> +4.9928626e+02 </wgt>
<wgt id='121'> +5.0951841e+02 </wgt>
<wgt id='122'> +5.1782795e+02 </wgt>
<wgt id='123'> +5.3846410e+02 </wgt>
<wgt id='124'> +4.7579998e+02 </wgt>
<wgt id='125'> +4.4005071e+02 </wgt>
<wgt id='126'> +5.0219697e+02 </wgt>
<wgt id='127'> +5.0187431e+02 </wgt>
<wgt id='128'> +5.2577969e+02 </wgt>
<wgt id='129'> +4.6185549e+02 </wgt>
<wgt id='130'> +4.9513409e+02 </wgt>
<wgt id='131'> +4.9302304e+02 </wgt>
<wgt id='132'> +4.7280796e+02 </wgt>
<wgt id='133'> +5.0777770e+02 </wgt>
<wgt id='134'> +4.8701036e+02 </wgt>
<wgt id='135'> +4.9234650e+02 </wgt>
<wgt id='136'> +4.8021243e+02 </wgt>
<wgt id='137'> +5.2956571e+02 </wgt>
<wgt id='138'> +5.1854156e+02 </wgt>
<wgt id='139'> +5.0015574e+02 </wgt>
<wgt id='140'> +4.8046995e+02 </wgt>
<wgt id='141'> +4.7764755e+02 </wgt>
<wgt id='142'> +5.5775217e+02 </wgt>
<wgt id='143'> +5.1967730e+02 </wgt>
<wgt id='144'> +5.3912898e+02 </wgt>
<wgt id='145'> +5.2175853e+02 </wgt>
</rwgt>
</event>
<event>
 4      1 +5.0481800e+02 2.24122800e+02 7.54677100e-03 1.13084600e-01
       21 -1    0    0  503  502 +0.0000000000e+00 +0.0000000000e+00 +1.3249235245e+02 1.3249235245e+02 0.0000000000e+00 0.0000e+00 1.0000e+00
       21 -1    0    0  501  503 -0.0000000000e+00 -0.0000000000e+00 -9.6109890290e+02 9.6109890290e+02 0.0000000000e+00 0.0000e+00 -1.0000e+00
        6  1    1    2  501    0 -1.3999715441e+02 -2.6510533782e+01 -8.3979701442e+02 8.6918929875e+02 1.7300000000e+02 0.0000e+00 -1.0000e+00
       -6  1    1    2    0  502 +1.3999715441e+02 +2.6510533782e+01 +1.1190463966e+01 2.2440195660e+02 1.7300000000e+02 0.0000e+00 1.0000e+00
<mgrwt>
<rscale>  2 0.22412276E+03</rscale>
<asrwt>0</asrwt>
<pdfrwt beam="1">  1       21 0.20383439E-01 0.22412276E+03</pdfrwt>
<pdfrwt beam="2">  1       21 0.14786137E+00 0.22412276E+03</pdfrwt>
<totfact> 0.67500448E+03</totfact>
</mgrwt>
<rwgt>
<wgt id='1'> +6.7945552e+02 </wgt>
<wgt id='2'> +5.4752693e+02 </wgt>
<wgt id='3'> +5.0481800e+02 </wgt>
<wgt id='4'> +6.7945552e+02 </wgt>
<wgt id='5'> +4.1806685e+02 </wgt>
<wgt id='6'> +6.1437318e+02 </wgt>
<wgt id='7'> +4.9058366e+02 </wgt>
<wgt id='8'> +4.5258291e+02 </wgt>
<wgt id='9'> +6.1437318e+02 </wgt>
<wgt id='10'> +3.7574556e+02 </wgt>
<wgt id='11'> +5.5080207e+02 </wgt>
<wgt id='12'> +4.4100262e+02 </wgt>
<wgt id='13'> +4.0728106e+02 </wgt>
<wgt id='14'> +5.5080207e+02 </wgt>
<wgt id='15'> +3.3902938e+02 </wgt>
<wgt id='16'> +5.5829483e+02 </wgt>
<wgt id='17'> +4.6039053e+02 </wgt>
<wgt id='18'> +4.2637966e+02 </wgt>
<wgt id='19'> +5.5829483e+02 </wgt>
<wgt id='20'> +3.5630997e+02 </wgt>
<wgt id='21'> +4.1250951e+02 </wgt>
<wgt id='22'> +3.8226083e+02 </wgt>
<wgt id='23'> +5.0481800e+02 </wgt>
<wgt id='24'> +3.2024039e+02 </wgt>
<wgt id='25'> +4.5258291e+02 </wgt>
<wgt id='26'> +3.7081907e+02 </wgt>
<wgt id='27'> +3.4399796e+02 </wgt>
<wgt id='28'> +4.5258291e+02 </wgt>
<wgt id='29'> +2.8894792e+02 </wgt>
<wgt id='30'> +4.7154729e+02 </wgt>
<wgt id='31'> +3.9262376e+02 </wgt>
<wgt id='32'> +3.6488535e+02 </wgt>
<wgt id='33'> +4.7154729e+02 </wgt>
<wgt id='34'> +3.0729044e+02 </wgt>
<wgt id='35'> +4.2637966e+02 </wgt>
<wgt id='36'> +3.5179054e+02 </wgt>
<wgt id='37'> +3.2712952e+02 </wgt>
<wgt id='38'> +4.2637966e+02 </wgt>
<wgt id='39'> +2.7618314e+02 </wgt>
<wgt id='40'> +3.8226083e+02 </wgt>
<wgt id='41'> +3.1623669e+02 </wgt>
<wgt id='42'> +2.9438509e+02 </wgt>
<wgt id='43'> +3.8226083e+02 </wgt>
<wgt id='44'> +2.4919576e+02 </wgt>
<wgt id='45'> +5.0481800e+02 </wgt>
<wgt id='46'> +5.2174762e+02 </wgt>
<wgt id='47'> +5.2358605e+02 </wgt>
<wgt id='48'> +5.0866810e+02 </wgt>
<wgt id='49'> +4.8137998e+02 </wgt>
<wgt id='50'> +6.1748417e+02 </wgt>
<wgt id='51'> +4.8325266e+02 </wgt>
<wgt id='52'> +4.9171296e+02 </wgt>
<wgt id='53'> +4.9908797e+02 </wgt>
<wgt id='54'> +5.2538073e+02 </wgt>
<wgt id='55'> +5.1095263e+02 </wgt>
<wgt id='56'> +4.6303426e+02 </wgt>
<wgt id='57'> +5.2082398e+02 </wgt>
<wgt id='58'> +4.7236510e+02 </wgt>
<wgt id='59'> +5.3955906e+02 </wgt>
<wgt id='60'> +5.0485794e+02 </wgt>
<wgt id='61'> +4.4413076e+02 </wgt>
<wgt id='62'> +4.8238623e+02 </wgt>
<wgt id='63'> +5.1801313e+02 </wgt>
<wgt id='64'> +4.9726965e+02 </wgt>
<wgt id='65'> +5.2586213e+02 </wgt>
<wgt id='66'> +5.0226376e+02 </wgt>
<wgt id='67'> +5.0727816e+02 </wgt>
<wgt id='68'> +5.8505963e+02 </wgt>
<wgt id='69'> +5.2703800e+02 </wgt>
<wgt id='70'> +5.1309962e+02 </wgt>
<wgt id='71'> +4.9320800e+02 </wgt>
<wgt id='72'> +4.6890020e+02 </wgt>
<wgt id='73'> +4.6983499e+02 </wgt>
<wgt id='74'> +5.5716103e+02 </wgt>
<wgt id='75'> +5.2993439e+02 </wgt>
<wgt id='76'> +5.0686553e+02 </wgt>
<wgt id='77'> +4.8916690e+02 </wgt>
<wgt id='78'> +4.5709062e+02 </wgt>
<wgt id='79'> +5.1630097e+02 </wgt>
<wgt id='80'> +4.7026796e+02 </wgt>
<wgt id='81'> +5.0332562e+02 </wgt>
<wgt id='82'> +4.8917790e+02 </wgt>
<wgt id='83'> +5.0787912e+02 </wgt>
<wgt id='84'> +5.2691448e+02 </wgt>
<wgt id='85'> +4.8953612e+02 </wgt>
<wgt id='86'> +5.1879738e+02 </wgt>
<wgt id='87'> +5.0568743e+02 </wgt>
<wgt id='88'> +5.0191652e+02 </wgt>
<wgt id='89'> +4.7904409e+02 </wgt>
<wgt id='90'> +4.9805567e+02 </wgt>
<wgt id='91'> +4.8359296e+02 </wgt>
<wgt id='92'> +4.5603810e+02 </wgt>
<wgt id='93'> +5.0671046e+02 </wgt>
<wgt id='94'> +4.7408825e+02 </wgt>
<wgt id='95'> +5.1278238e+02 </wgt>
<wgt id='96'> +5.4147732e+02 </wgt>
<wgt id='97'> +4.7906794e+02 </wgt>
<wgt id='98'> +5.1374842e+02 </wgt>
<wgt id='99'> +4.5082243e+02 </wgt>
<wgt id='100'> +4.2441632e+02 </wgt>
<wgt id='101'> +5.8206086e+02 </wgt>
<wgt id='102'> +5.4838275e+02 </wgt>
<wgt id='103'> +5.2211633e+02 </wgt>
<wgt id='104'> +5.2620557e+02 </wgt>
<wgt id='105'> +5.1788634e+02 </wgt>
<wgt id='106'> +4.6438504e+02 </wgt>
<wgt id='107'> +4.7462591e+02 </wgt>
<wgt id='108'> +4.4875079e+02 </wgt>
<wgt id='109'> +4.8176479e+02 </wgt>
<wgt id='110'> +4.8283077e+02 </wgt>
<wgt id='111'> +4.8980562e+02 </wgt>
<wgt id='112'> +4.9623370e+02 </wgt>
<wgt id='113'> +4.8721958e+02 </wgt>
<wgt id='114'> +5.0378175e+02 </wgt>
<wgt id='115'> +4.6770436e+02 </wgt>
<wgt id='116'> +5.4332601e+02 </wgt>
<wgt id='117'> +4.9493809e+02 </wgt>
<wgt id='118'> +5.3274584e+02 </wgt>
<wgt id='119'> +5.1594283e+02 </wgt>
<wgt id='120'> +5.0057672e+02 </wgt>
<wgt id='121'> +4.9616479e+02 </wgt>
<wgt id='122'> +4.9660387e+02 </wgt>
<wgt id='123'> +5.0037325e+02 </wgt>
<wgt id='124'> +5.7435511e+02 </wgt>
<wgt id='125'> +6.0185710e+02 </wgt>
<wgt id='126'> +5.1184656e+02 </wgt>
<wgt id='127'> +5.0537202e+02 </wgt>
<wgt id='128'> +4.6609732e+02 </wgt>
<wgt id='129'> +5.4915370e+02 </wgt>
<wgt id='130'> +4.9321618e+02 </wgt>
<wgt id='131'> +4.9942203e+02 </wgt>
<wgt id='132'> +5.4514921e+02 </wgt>
<wgt id='133'> +5.3774843e+02 </wgt>
<wgt id='134'> +5.0695900e+02 </wgt>
<wgt id='135'> +4.9872658e+02 </wgt>
<wgt id='136'> +5.5818035e+02 </wgt>
<wgt id='137'> +5.0211619e+02 </wgt>
<wgt id='138'> +4.9727703e+02 </wgt>
<wgt id='139'> +5.2211582e+02 </wgt>
<wgt id='140'> +5.0559300e+02 </wgt>
<wgt id='141'> +5.3970623e+02 </wgt>
<wgt id='142'> +4.1865028e+02 </wgt>
<wgt id='143'> +5.1788156e+02 </wgt>
<wgt id='144'> +4.7428906e+02 </wgt>
<wgt id='145'> +4.8422594e+02 </wgt>
</rwgt>
</event>
<event>
 4      1 +5.0481800e+02 2.20146500e+02 7.54677100e-03 1.13377400e-01
       21 -1    0    0  503  502 +0.0000000000e+00 +0.0000000000e+00 +6.1391191583e+02 6.1391191583e+02 0.0000000000e+00 0.0000e+00 -1.0000e+00
       21 -1    0    0  501  503 -0.0000000000e+00 -0.0000000000e+00 -9.4769424212e+01 9.4769424212e+01 0.0000000000e+00 0.0000e+00 1.0000e+00
        6  1    1    2  501    0 +3.4807784274e+01 +1.3162022234e+02 +1.1477110784e+02 2.4826774251e+02 1.7300000000e+02 0.0000e+00 1.0000e+00
       -6  1    1    2    0  502 -3.4807784274e+01 -1.3162022234e+02 +4.0437138377e+02 4.6041359753e+02 1.7300000000e+02 0.0000e+00 -1.0000e+00
<mgrwt>
<rscale>  2 0.22014646E+03</rscale>
<asrwt>0</asrwt>
<pdfrwt beam="1">  1       21 0.94447985E-01 0.22014646E+03</pdfrwt>
<pdfrwt beam="2">  1       21 0.14579912E-01 0.22014646E+03</pdfrwt>
<totfact> 0.38235745E+04</totfact>
</mgrwt>
<rwgt>
<wgt id='1'> +6.5493920e+02 </wgt>
<wgt id='2'> +5.5722028e+02 </wgt>
<wgt id='3'> +5.0481800e+02 </wgt>
<wgt id='4'> +6.5493920e+02 </wgt>
<wgt id='5'> +4.8836898e+02 </wgt>
<wgt id='6'> +6.1498067e+02 </wgt>
<wgt id='7'> +5.1733832e+02 </wgt>
<wgt id='8'> +4.6798866e+02 </wgt>
<wgt id='9'> +6.1498067e+02 </wgt>
<wgt id='10'> +4.5278722e+02 </wgt>
<wgt id='11'> +5.7011434e+02 </wgt>
<wgt id='12'> +4.7977064e+02 </wgt>
<wgt id='13'> +4.3415457e+02 </wgt>
<wgt id='14'> +5.7011434e+02 </wgt>
<wgt id='15'> +4.2011140e+02 </wgt>
<wgt id='16'> +5.3761868e+02 </wgt>
<wgt id='17'> +4.6710800e+02 </wgt>
<wgt id='18'> +4.2623692e+02 </wgt>
<wgt id='19'> +5.3761868e+02 </wgt>
<wgt id='20'> +4.1309176e+02 </wgt>
<wgt id='21'> +4.3367566e+02 </wgt>
<wgt id='22'> +3.9514052e+02 </wgt>
<wgt id='23'> +5.0481800e+02 </wgt>
<wgt id='24'> +3.8299457e+02 </wgt>
<wgt id='25'> +4.6798867e+02 </wgt>
<wgt id='26'> +4.0218333e+02 </wgt>
<wgt id='27'> +3.6657312e+02 </wgt>
<wgt id='28'> +4.6798866e+02 </wgt>
<wgt id='29'> +3.5535540e+02 </wgt>
<wgt id='30'> +4.5393178e+02 </wgt>
<wgt id='31'> +3.9767708e+02 </wgt>
<wgt id='32'> +3.6464925e+02 </wgt>
<wgt id='33'> +4.5393177e+02 </wgt>
<wgt id='34'> +3.5396493e+02 </wgt>
<wgt id='35'> +4.2623692e+02 </wgt>
<wgt id='36'> +3.6921412e+02 </wgt>
<wgt id='37'> +3.3804602e+02 </wgt>
<wgt id='38'> +4.2623692e+02 </wgt>
<wgt id='39'> +3.2817563e+02 </wgt>
<wgt id='40'> +3.9514052e+02 </wgt>
<wgt id='41'> +3.4240281e+02 </wgt>
<wgt id='42'> +3.1360637e+02 </wgt>
<wgt id='43'> +3.9514052e+02 </wgt>
<wgt id='44'> +3.0449252e+02 </wgt>
<wgt id='45'> +5.0481800e+02 </wgt>
<wgt id='46'> +5.1418009e+02 </wgt>
<wgt id='47'> +5.2102370e+02 </wgt>
<wgt id='48'> +5.0807533e+02 </wgt>
<wgt id='49'> +4.9681999e+02 </wgt>
<wgt id='50'> +5.9919779e+02 </wgt>
<wgt id='51'> +4.9228020e+02 </wgt>
<wgt id='52'> +5.0278819e+02 </wgt>
<wgt id='53'> +5.0059166e+02 </wgt>
<wgt id='54'> +5.1276540e+02 </wgt>
<wgt id='55'> +4.7593505e+02 </wgt>
<wgt id='56'> +4.6303649e+02 </wgt>
<wgt id='57'> +5.0506346e+02 </wgt>
<wgt id='58'> +4.9504916e+02 </wgt>
<wgt id='59'> +5.1992797e+02 </wgt>
<wgt id='60'> +5.0045294e+02 </wgt>
<wgt id='61'> +4.5103059e+02 </wgt>
<wgt id='62'> +4.9486017e+02 </wgt>
<wgt id='63'> +5.0742794e+02 </wgt>
<wgt id='64'> +4.9601358e+02 </wgt>
<wgt id='65'> +5.6361633e+02 </wgt>
<wgt id='66'> +4.9625337e+02 </wgt>
<wgt id='67'> +5.0798031e+02 </wgt>
<wgt id='68'> +5.5515950e+02 </wgt>
<wgt id='69'> +5.0393683e+02 </wgt>
<wgt id='70'> +4.9931130e+02 </wgt>
<wgt id='71'> +5.0926752e+02 </wgt>
<wgt id='72'> +4.8515440e+02 </wgt>
<wgt id='73'> +4.8907393e+02 </wgt>
<wgt id='74'> +5.3281366e+02 </wgt>
<wgt id='75'> +5.1719178e+02 </wgt>
<wgt id='76'> +4.9777462e+02 </wgt>
<wgt id='77'> +4.9322172e+02 </wgt>
<wgt id='78'> +4.8475988e+02 </wgt>
<wgt id='79'> +4.9790032e+02 </wgt>
<wgt id='80'> +4.9121099e+02 </wgt>
<wgt id='81'> +4.9616325e+02 </wgt>
<wgt id='82'> +5.0031177e+02 </wgt>
<wgt id='83'> +5.1135776e+02 </wgt>
<wgt id='84'> +5.4247795e+02 </wgt>
<wgt id='85'> +5.1479549e+02 </wgt>
<wgt id='86'> +5.0732311e+02 </wgt>
<wgt id='87'> +5.0740673e+02 </wgt>
<wgt id='88'> +5.0802121e+02 </wgt>
<wgt id='89'> +5.0933924e+02 </wgt>
<wgt id='90'> +5.1242546e+02 </wgt>
<wgt id='91'> +5.1753683e+02 </wgt>
<wgt id='92'> +4.6203611e+02 </wgt>
<wgt id='93'> +5.0174520e+02 </wgt>
<wgt id='94'> +4.9160309e+02 </wgt>
<wgt id='95'> +4.9722964e+02 </wgt>
<wgt id='96'> +5.4093303e+02 </wgt>
<wgt id='97'> +4.9989307e+02 </wgt>
<wgt id='98'> +4.9381017e+02 </wgt>
<wgt id='99'> +4.7858250e+02 </wgt>
<wgt id='100'> +4.7243122e+02 </wgt>
<wgt id='101'> +5.5360756e+02 </wgt>
<wgt id='102'> +5.1623474e+02 </wgt>
<wgt id='103'> +5.4169440e+02 </wgt>
<wgt id='104'> +5.0987628e+02 </wgt>
<wgt id='105'> +5.2114711e+02 </wgt>
<wgt id='106'> +4.6231912e+02 </wgt>
<wgt id='107'> +4.8403959e+02 </wgt>
<wgt id='108'> +4.4814502e+02 </wgt>
<wgt id='109'> +4.7628917e+02 </wgt>
<wgt id='110'> +4.9971377e+02 </wgt>
<wgt id='111'> +4.9132278e+02 </wgt>
<wgt id='112'> +4.8063846e+02 </wgt>
<wgt id='113'> +4.6963635e+02 </wgt>
<wgt id='114'> +4.9680289e+02 </wgt>
<wgt id='115'> +4.8275341e+02 </wgt>
<wgt id='116'> +5.2050638e+02 </wgt>
<wgt id='117'> +5.0092666e+02 </wgt>
<wgt id='118'> +5.2707336e+02 </wgt>
<wgt id='119'> +4.9377018e+02 </wgt>
<wgt id='120'> +4.9482563e+02 </wgt>
<wgt id='121'> +4.9481735e+02 </wgt>
<wgt id='122'> +4.9895982e+02 </wgt>
<wgt id='123'> +5.0786705e+02 </wgt>
<wgt id='124'> +5.5528888e+02 </wgt>
<wgt id='125'> +5.6139245e+02 </wgt>
<wgt id='126'> +5.1987762e+02 </wgt>
<wgt id='127'> +5.1680211e+02 </wgt>
<wgt id='128'> +4.6184308e+02 </wgt>
<wgt id='129'> +5.6396614e+02 </wgt>
<wgt id='130'> +5.0161728e+02 </wgt>
<wgt id='131'> +5.2583715e+02 </wgt>
<wgt id='132'> +5.2536684e+02 </wgt>
<wgt id='133'> +5.1702091e+02 </wgt>
<wgt id='134'> +4.8987173e+02 </wgt>
<wgt id='135'> +5.1144829e+02 </wgt>
<wgt id='136'> +5.1728093e+02 </wgt>
<wgt id='137'> +4.8434000e+02 </wgt>
<wgt id='138'> +4.7412096e+02 </wgt>
<wgt id='139'> +5.1900048e+02 </wgt>
<wgt id='140'> +5.2093231e+02 </wgt>
<wgt id='141'> +5.1374527e+02 </wgt>
<wgt id='142'> +4.7750239e+02 </wgt>
<wgt id='143'> +5.1254733e+02 </wgt>
<wgt id='144'> +4.9462313e+02 </wgt>
<wgt id='145'> +5.0066806e+02 </wgt>
</rwgt>
</event>
<event>
 4      1 +5.0481800e+02 2.12766200e+02 7.54677100e-03 1.13939400e-01
       21 -1    0    0  501  502 +0.0000000000e+00 +0.0000000000e+00 +2.5662871214e+02 2.5662871214e+02 0.0000000000e+00 0.0000e+00 1.0000e+00
       21 -1    0    0  502  503 -0.0000000000e+00 -0.0000000000e+00 -1.9000469874e+02 1.9000469874e+02 0.0000000000e+00 0.0000e+00 -1.0000e+00
        6  1    1    2  501    0 +1.2104208128e+02 +2.6253821572e+01 +9.3067049869e+01 2.3223032610e+02 1.7300000000e+02 0.0000e+00 1.0000e+00
       -6  1    1    2    0  503 -1.2104208128e+02 -2.6253821572e+01 -2.6443036475e+01 2.1440308479e+02 1.7300000000e+02 0.0000e+00 -1.0000e+00
<mgrwt>
<rscale>  2 0.21276618E+03</rscale>
<asrwt>0</asrwt>
<pdfrwt beam="1">  1       21 0.39481340E-01 0.21276618E+03</pdfrwt>
<pdfrwt beam="2">  1       21 0.29231492E-01 0.21276618E+03</pdfrwt>
<totfact> 0.68701789E+04</totfact>
</mgrwt>
<rwgt>
<wgt id='1'> +6.4680810e+02 </wgt>
<wgt id='2'> +5.1790712e+02 </wgt>
<wgt id='3'> +5.0481800e+02 </wgt>
<wgt id='4'> +6.4680809e+02 </wgt>
<wgt id='5'> +4.9837061e+02 </wgt>
<wgt id='6'> +6.1616196e+02 </wgt>
<wgt id='7'> +4.8607297e+02 </wgt>
<wgt id='8'> +4.7372843e+02 </wgt>
<wgt id='9'> +6.1616196e+02 </wgt>
<wgt id='10'> +4.6769082e+02 </wgt>
<wgt id='11'> +5.7821520e+02 </wgt>
<wgt id='12'> +4.5604707e+02 </wgt>
<wgt id='13'> +4.4446876e+02 </wgt>
<wgt id='14'> +5.7821520e+02 </wgt>
<wgt id='15'> +4.3880767e+02 </wgt>
<wgt id='16'> +5.2992620e+02 </wgt>
<wgt id='17'> +4.3632195e+02 </wgt>
<wgt id='18'> +4.2596424e+02 </wgt>
<wgt id='19'> +5.2992620e+02 </wgt>
<wgt id='20'> +4.2081702e+02 </wgt>
<wgt id='21'> +4.0950259e+02 </wgt>
<wgt id='22'> +3.9973094e+02 </wgt>
<wgt id='23'> +5.0481800e+02 </wgt>
<wgt id='24'> +3.9491145e+02 </wgt>
<wgt id='25'> +4.7372843e+02 </wgt>
<wgt id='26'> +3.8420662e+02 </wgt>
<wgt id='27'> +3.7504170e+02 </wgt>
<wgt id='28'> +4.7372843e+02 </wgt>
<wgt id='29'> +3.7052293e+02 </wgt>
<wgt id='30'> +4.4715049e+02 </wgt>
<wgt id='31'> +3.7256145e+02 </wgt>
<wgt id='32'> +3.6419790e+02 </wgt>
<wgt id='33'> +4.4715048e+02 </wgt>
<wgt id='34'> +3.6003164e+02 </wgt>
<wgt id='35'> +4.2596424e+02 </wgt>
<wgt id='36'> +3.4966125e+02 </wgt>
<wgt id='37'> +3.4176852e+02 </wgt>
<wgt id='38'> +4.2596424e+02 </wgt>
<wgt id='39'> +3.3786803e+02 </wgt>
<wgt id='40'> +3.9973094e+02 </wgt>
<wgt id='41'> +3.2806183e+02 </wgt>
<wgt id='42'> +3.2065931e+02 </wgt>
<wgt id='43'> +3.9973094e+02 </wgt>
<wgt id='44'> +3.1700233e+02 </wgt>
<wgt id='45'> +5.0481800e+02 </wgt>
<wgt id='46'> +5.0412408e+02 </wgt>
<wgt id='47'> +5.2290174e+02 </wgt>
<wgt id='48'> +5.0608931e+02 </wgt>
<wgt id='49'> +5.0403618e+02 </wgt>
<wgt id='50'> +5.8790294e+02 </wgt>
<wgt id='51'> +4.9517701e+02 </wgt>
<wgt id='52'> +5.0148363e+02 </wgt>
<wgt id='53'> +5.1190499e+02 </wgt>
<wgt id='54'> +5.0763822e+02 </wgt>
<wgt id='55'> +4.5001773e+02 </wgt>
<wgt id='56'> +4.7068558e+02 </wgt>
<wgt id='57'> +4.9047363e+02 </wgt>
<wgt id='58'> +5.0879303e+02 </wgt>
<wgt id='59'> +4.9550814e+02 </wgt>
<wgt id='60'> +4.8259715e+02 </wgt>
<wgt id='61'> +4.9481433e+02 </wgt>
<wgt id='62'> +4.9829142e+02 </wgt>
<wgt id='63'> +5.0530780e+02 </wgt>
<wgt id='64'> +5.0088442e+02 </wgt>
<wgt id='65'> +5.9731920e+02 </wgt>
<wgt id='66'> +4.9280115e+02 </wgt>
<wgt id='67'> +5.0944029e+02 </wgt>
<wgt id='68'> +5.3953130e+02 </wgt>
<wgt id='69'> +4.9201251e+02 </wgt>
<wgt id='70'> +4.9649148e+02 </wgt>
<wgt id='71'> +5.1439103e+02 </wgt>
<wgt id='72'> +4.9094577e+02 </wgt>
<wgt id='73'> +4.9854400e+02 </wgt>
<wgt id='74'> +5.1888559e+02 </wgt>
<wgt id='75'> +5.1610830e+02 </wgt>
<wgt id='76'> +4.8967912e+02 </wgt>
<wgt id='77'> +4.8557520e+02 </wgt>
<wgt id='78'> +5.0661828e+02 </wgt>
<wgt id='79'> +4.8334922e+02 </wgt>
<wgt id='80'> +5.0102135e+02 </wgt>
<wgt id='81'> +4.9568864e+02 </wgt>
<wgt id='82'> +5.1966092e+02 </wgt>
<wgt id='83'> +5.1554354e+02 </wgt>
<wgt id='84'> +5.5503597e+02 </wgt>
<wgt id='85'> +5.3208346e+02 </wgt>
<wgt id='86'> +5.0126427e+02 </wgt>
<wgt id='87'> +5.0447551e+02 </wgt>
<wgt id='88'> +5.1403072e+02 </wgt>
<wgt id='89'> +5.1649396e+02 </wgt>
<wgt id='90'> +5.0976449e+02 </wgt>
<wgt id='91'> +5.3808755e+02 </wgt>
<wgt id='92'> +4.6482033e+02 </wgt>
<wgt id='93'> +4.9571806e+02 </wgt>
<wgt id='94'> +5.0271286e+02 </wgt>
<wgt id='95'> +4.8356370e+02 </wgt>
<wgt id='96'> +5.4551049e+02 </wgt>
<wgt id='97'> +5.1339237e+02 </wgt>
<wgt id='98'> +4.8100120e+02 </wgt>
<wgt id='99'> +4.9064248e+02 </wgt>
<wgt id='100'> +5.0255353e+02 </wgt>
<wgt id='101'> +5.2809933e+02 </wgt>
<wgt id='102'> +4.8843686e+02 </wgt>
<wgt id='103'> +5.4783601e+02 </wgt>
<wgt id='104'> +5.0386380e+02 </wgt>
<wgt id='105'> +5.2490067e+02 </wgt>
<wgt id='106'> +4.6506764e+02 </wgt>
<wgt id='107'> +4.9994236e+02 </wgt>
<wgt id='108'> +4.5349916e+02 </wgt>
<wgt id='109'> +4.7459144e+02 </wgt>
<wgt id='110'> +5.0586114e+02 </wgt>
<wgt id='111'> +4.9186341e+02 </wgt>
<wgt id='112'> +4.8263623e+02 </wgt>
<wgt id='113'> +4.6368616e+02 </wgt>
<wgt id='114'> +5.0482426e+02 </wgt>
<wgt id='115'> +5.0841644e+02 </wgt>
<wgt id='116'> +5.0320659e+02 </wgt>
<wgt id='117'> +5.1263691e+02 </wgt>
<wgt id='118'> +5.1646309e+02 </wgt>
<wgt id='119'> +4.8509377e+02 </wgt>
<wgt id='120'> +5.0467024e+02 </wgt>
<wgt id='121'> +4.9037151e+02 </wgt>
<wgt id='122'> +4.9824140e+02 </wgt>
<wgt id='123'> +5.1156763e+02 </wgt>
<wgt id='124'> +5.3728824e+02 </wgt>
<wgt id='125'> +5.3854382e+02 </wgt>
<wgt id='126'> +5.2434521e+02 </wgt>
<wgt id='127'> +5.1955407e+02 </wgt>
<wgt id='128'> +4.7012170e+02 </wgt>
<wgt id='129'> +5.7126057e+02 </wgt>
<wgt id='130'> +5.0950969e+02 </wgt>
<wgt id='131'> +5.4124565e+02 </wgt>
<wgt id='132'> +4.9698811e+02 </wgt>
<wgt id='133'> +5.0018938e+02 </wgt>
<wgt id='134'> +4.7391197e+02 </wgt>
<wgt id='135'> +5.1791577e+02 </wgt>
<wgt id='136'> +4.8164581e+02 </wgt>
<wgt id='137'> +4.7522673e+02 </wgt>
<wgt id='138'> +4.5861595e+02 </wgt>
<wgt id='139'> +5.1386763e+02 </wgt>
<wgt id='140'> +5.3767517e+02 </wgt>
<wgt id='141'> +5.0378277e+02 </wgt>
<wgt id='142'> +5.1019354e+02 </wgt>
<wgt id='143'> +4.9913339e+02 </wgt>
<wgt id='144'> +5.0483794e+02 </wgt>
<wgt id='145'> +5.0600011e+02 </wgt>
</rwgt>
</event>
<event>
 4      1 +5.0481800e+02 2.29396700e+02 7.54677100e-03 1.12706500e-01
       21 -1    0    0  501  502 +0.0000000000e+00 +0.0000000000e+00 +9.9573899882e+01 9.9573899882e+01 0.0000000000e+00 0.0000e+00 1.0000e+00
       21 -1    0    0  502  503 -0.0000000000e+00 -0.0000000000e+00 -7.5876060064e+02 7.5876060064e+02 0.0000000000e+00 0.0000e+00 -1.0000e+00
        6  1    1    2  501    0 -2.0608355747e+00 -1.5063061775e+02 -5.6602342447e+02 6.1074163694e+02 1.7300000000e+02 0.0000e+00 -1.0000e+00
       -6  1    1    2    0  503 +2.0608355747e+00 +1.5063061775e+02 -9.3163276285e+01 2.4759286358e+02 1.7300000000e+02 0.0000e+00 1.0000e+00
<mgrwt>
<rscale>  2 0.22939667E+03</rscale>
<asrwt>0</asrwt>
<pdfrwt beam="1">  1       21 0.15319061E-01 0.22939667E+03</pdfrwt>
<pdfrwt beam="2">  1       21 0.11673240E+00 0.22939667E+03</pdfrwt>
<totfact> 0.20874419E+04</totfact>
</mgrwt>
<rwgt>
<wgt id='1'> +6.6263458e+02 </wgt>
<wgt id='2'> +5.4960821e+02 </wgt>
<wgt id='3'> +5.0481800e+02 </wgt>
<wgt id='4'> +6.6263458e+02 </wgt>
<wgt id='5'> +4.7154535e+02 </wgt>
<wgt id='6'> +6.1359946e+02 </wgt>
<wgt id='7'> +5.0374000e+02 </wgt>
<wgt id='8'> +4.6268763e+02 </wgt>
<wgt id='9'> +6.1359946e+02 </wgt>
<wgt id='10'> +4.3235574e+02 </wgt>
<wgt id='11'> +5.6239056e+02 </wgt>
<wgt id='12'> +4.6220103e+02 </wgt>
<wgt id='13'> +4.2479325e+02 </wgt>
<wgt id='14'> +5.6239057e+02 </wgt>
<wgt id='15'> +3.9715882e+02 </wgt>
<wgt id='16'> +5.4515997e+02 </wgt>
<wgt id='17'> +4.6208537e+02 </wgt>
<wgt id='18'> +4.2657030e+02 </wgt>
<wgt id='19'> +5.4515998e+02 </wgt>
<wgt id='20'> +3.9989789e+02 </wgt>
<wgt id='21'> +4.2352149e+02 </wgt>
<wgt id='22'> +3.9097021e+02 </wgt>
<wgt id='23'> +5.0481800e+02 </wgt>
<wgt id='24'> +3.6666282e+02 </wgt>
<wgt id='25'> +4.6268763e+02 </wgt>
<wgt id='26'> +3.8859742e+02 </wgt>
<wgt id='27'> +3.5894953e+02 </wgt>
<wgt id='28'> +4.6268763e+02 </wgt>
<wgt id='29'> +3.3681379e+02 </wgt>
<wgt id='30'> +4.6065919e+02 </wgt>
<wgt id='31'> +3.9404085e+02 </wgt>
<wgt id='32'> +3.6519632e+02 </wgt>
<wgt id='33'> +4.6065919e+02 </wgt>
<wgt id='34'> +3.4342006e+02 </wgt>
<wgt id='35'> +4.2657030e+02 </wgt>
<wgt id='36'> +3.6115571e+02 </wgt>
<wgt id='37'> +3.3471829e+02 </wgt>
<wgt id='38'> +4.2657030e+02 </wgt>
<wgt id='39'> +3.1487880e+02 </wgt>
<wgt id='40'> +3.9097021e+02 </wgt>
<wgt id='41'> +3.3137439e+02 </wgt>
<wgt id='42'> +3.0730467e+02 </wgt>
<wgt id='43'> +3.9097021e+02 </wgt>
<wgt id='44'> +2.8924537e+02 </wgt>
<wgt id='45'> +5.0481800e+02 </wgt>
<wgt id='46'> +5.1783277e+02 </wgt>
<wgt id='47'> +5.2107029e+02 </wgt>
<wgt id='48'> +5.0825481e+02 </wgt>
<wgt id='49'> +4.9099000e+02 </wgt>
<wgt id='50'> +6.0573543e+02 </wgt>
<wgt id='51'> +4.8905286e+02 </wgt>
<wgt id='52'> +4.9975055e+02 </wgt>
<wgt id='53'> +4.9858201e+02 </wgt>
<wgt id='54'> +5.1768511e+02 </wgt>
<wgt id='55'> +4.9079810e+02 </wgt>
<wgt id='56'> +4.6209507e+02 </wgt>
<wgt id='57'> +5.1245643e+02 </wgt>
<wgt id='58'> +4.8614222e+02 </wgt>
<wgt id='59'> +5.2954402e+02 </wgt>
<wgt id='60'> +5.0424334e+02 </wgt>
<wgt id='61'> +4.3907202e+02 </wgt>
<wgt id='62'> +4.9058458e+02 </wgt>
<wgt id='63'> +5.1090180e+02 </wgt>
<wgt id='64'> +4.9638466e+02 </wgt>
<wgt id='65'> +5.4750358e+02 </wgt>
<wgt id='66'> +4.9851536e+02 </wgt>
<wgt id='67'> +5.0742840e+02 </wgt>
<wgt id='68'> +5.6560381e+02 </wgt>
<wgt id='69'> +5.1222822e+02 </wgt>
<wgt id='70'> +5.0351795e+02 </wgt>
<wgt id='71'> +5.0374092e+02 </wgt>
<wgt id='72'> +4.8025630e+02 </wgt>
<wgt id='73'> +4.8171810e+02 </wgt>
<wgt id='74'> +5.4163704e+02 </wgt>
<wgt id='75'> +5.2068548e+02 </wgt>
<wgt id='76'> +5.0208469e+02 </wgt>
<wgt id='77'> +4.9317290e+02 </wgt>
<wgt id='78'> +4.7339253e+02 </wgt>
<wgt id='79'> +5.0534005e+02 </wgt>
<wgt id='80'> +4.8364763e+02 </wgt>
<wgt id='81'> +4.9830596e+02 </wgt>
<wgt id='82'> +4.9305137e+02 </wgt>
<wgt id='83'> +5.0942591e+02 </wgt>
<wgt id='84'> +5.3576386e+02 </wgt>
<wgt id='85'> +5.0446964e+02 </wgt>
<wgt id='86'> +5.1138903e+02 </wgt>
<wgt id='87'> +5.0733356e+02 </wgt>
<wgt id='88'> +5.0515174e+02 </wgt>
<wgt id='89'> +4.9916668e+02 </wgt>
<wgt id='90'> +5.0861332e+02 </wgt>
<wgt id='91'> +5.0424074e+02 </wgt>
<wgt id='92'> +4.6035268e+02 </wgt>
<wgt id='93'> +5.0394992e+02 </wgt>
<wgt id='94'> +4.8459660e+02 </wgt>
<wgt id='95'> +5.0477459e+02 </wgt>
<wgt id='96'> +5.3951882e+02 </wgt>
<wgt id='97'> +4.9174110e+02 </wgt>
<wgt id='98'> +5.0165488e+02 </wgt>
<wgt id='99'> +4.6839090e+02 </wgt>
<wgt id='100'> +4.5353195e+02 </wgt>
<wgt id='101'> +5.6556361e+02 </wgt>
<wgt id='102'> +5.2992072e+02 </wgt>
<wgt id='103'> +5.3457280e+02 </wgt>
<wgt id='104'> +5.1558974e+02 </wgt>
<wgt id='105'> +5.1991190e+02 </wgt>
<wgt id='106'> +4.6312030e+02 </wgt>
<wgt id='107'> +4.7897566e+02 </wgt>
<wgt id='108'> +4.4827805e+02 </wgt>
<wgt id='109'> +4.7894826e+02 </wgt>
<wgt id='110'> +4.9384163e+02 </wgt>
<wgt id='111'> +4.9131503e+02 </wgt>
<wgt id='112'> +4.8565543e+02 </wgt>
<wgt id='113'> +4.7598393e+02 </wgt>
<wgt id='114'> +4.9867648e+02 </wgt>
<wgt id='115'> +4.7535602e+02 </wgt>
<wgt id='116'> +5.2965904e+02 </wgt>
<wgt id='117'> +4.9755128e+02 </wgt>
<wgt id='118'> +5.3019324e+02 </wgt>
<wgt id='119'> +5.0196828e+02 </wgt>
<wgt id='120'> +4.9667990e+02 </wgt>
<wgt id='121'> +4.9663659e+02 </wgt>
<wgt id='122'> +4.9857659e+02 </wgt>
<wgt id='123'> +5.0523465e+02 </wgt>
<wgt id='124'> +5.6343542e+02 </wgt>
<wgt id='125'> +5.7633641e+02 </wgt>
<wgt id='126'> +5.1657999e+02 </wgt>
<wgt id='127'> +5.1280830e+02 </wgt>
<wgt id='128'> +4.6219879e+02 </wgt>
<wgt id='129'> +5.5816929e+02 </wgt>
<wgt id='130'> +4.9768248e+02 </wgt>
<wgt id='131'> +5.1549107e+02 </wgt>
<wgt id='132'> +5.3566095e+02 </wgt>
<wgt id='133'> +5.2561886e+02 </wgt>
<wgt id='134'> +4.9749955e+02 </wgt>
<wgt id='135'> +5.0653924e+02 </wgt>
<wgt id='136'> +5.3538434e+02 </wgt>
<wgt id='137'> +4.9079599e+02 </wgt>
<wgt id='138'> +4.8334179e+02 </wgt>
<wgt id='139'> +5.2047845e+02 </wgt>
<wgt id='140'> +5.1378127e+02 </wgt>
<wgt id='141'> +5.2284448e+02 </wgt>
<wgt id='142'> +4.5572099e+02 </wgt>
<wgt id='143'> +5.1611538e+02 </wgt>
<wgt id='144'> +4.8702502e+02 </wgt>
<wgt id='145'> +4.9468548e+02 </wgt>
</rwgt>
</event>
<event>
 4      1 +5.0481800e+02 2.22099500e+02 7.54677100e-03 1.13232700e-01
       21 -1    0    0  501  502 +0.0000000000e+00 +0.0000000000e+00 +8.6786540319e+01 8.6786540319e+01 0.0000000000e+00 0.0000e+00 1.0000e+00
       21 -1    0    0  502  503 -0.0000000000e+00 -0.0000000000e+00 -7.3104188047e+02 7.3104188047e+02 0.0000000000e+00 0.0000e+00 1.0000e+00
        6  1    1    2  501    0 +1.3010513101e+02 +4.9717595392e+01 -1.2924330001e+02 2.5696695314e+02 1.7300000000e+02 0.0000e+00 1.0000e+00
       -6  1    1    2    0  503 -1.3010513101e+02 -4.9717595392e+01 -5.1501204014e+02 5.6086146765e+02 1.7300000000e+02 0.0000e+00 1.0000e+00
<mgrwt>
<rscale>  2 0.22209949E+03</rscale>
<asrwt>0</asrwt>
<pdfrwt beam="1">  1       21 0.13351776E-01 0.22209949E+03</pdfrwt>
<pdfrwt beam="2">  1       21 0.11246798E+00 0.22209949E+03</pdfrwt>
<totfact> 0.29485704E+04</totfact>
</mgrwt>
<rwgt>
<wgt id='1'> +6.5896490e+02 </wgt>
<wgt id='2'> +5.6163447e+02 </wgt>
<wgt id='3'> +5.0481800e+02 </wgt>
<wgt id='4'> +6.5896490e+02 </wgt>
<wgt id='5'> +4.8182375e+02 </wgt>
<wgt id='6'> +6.1467991e+02 </wgt>
<wgt id='7'> +5.1835021e+02 </wgt>
<wgt id='8'> +4.6527739e+02 </wgt>
<wgt id='9'> +6.1467991e+02 </wgt>
<wgt id='10'> +4.4416945e+02 </wgt>
<wgt id='11'> +5.6653420e+02 </wgt>
<wgt id='12'> +4.7804158e+02 </wgt>
<wgt id='13'> +4.2932876e+02 </wgt>
<wgt id='14'> +5.6653420e+02 </wgt>
<wgt id='15'> +4.0996464e+02 </wgt>
<wgt id='16'> +5.4118793e+02 </wgt>
<wgt id='17'> +4.7070684e+02 </wgt>
<wgt id='18'> +4.2630712e+02 </wgt>
<wgt id='19'> +5.4118793e+02 </wgt>
<wgt id='20'> +4.0790896e+02 </wgt>
<wgt id='21'> +4.3443022e+02 </wgt>
<wgt id='22'> +3.9291599e+02 </wgt>
<wgt id='23'> +5.0481800e+02 </wgt>
<wgt id='24'> +3.7603106e+02 </wgt>
<wgt id='25'> +4.6527739e+02 </wgt>
<wgt id='26'> +4.0064749e+02 </wgt>
<wgt id='27'> +3.6255820e+02 </wgt>
<wgt id='28'> +4.6527739e+02 </wgt>
<wgt id='29'> +3.4707349e+02 </wgt>
<wgt id='30'> +4.5702068e+02 </wgt>
<wgt id='31'> +4.0069730e+02 </wgt>
<wgt id='32'> +3.6476556e+02 </wgt>
<wgt id='33'> +4.5702068e+02 </wgt>
<wgt id='34'> +3.4978502e+02 </wgt>
<wgt id='35'> +4.2630712e+02 </wgt>
<wgt id='36'> +3.6981621e+02 </wgt>
<wgt id='37'> +3.3619477e+02 </wgt>
<wgt id='38'> +4.2630712e+02 </wgt>
<wgt id='39'> +3.2244948e+02 </wgt>
<wgt id='40'> +3.9291599e+02 </wgt>
<wgt id='41'> +3.4105807e+02 </wgt>
<wgt id='42'> +3.1021942e+02 </wgt>
<wgt id='43'> +3.9291599e+02 </wgt>
<wgt id='44'> +2.9761815e+02 </wgt>
<wgt id='45'> +5.0481800e+02 </wgt>
<wgt id='46'> +5.1670399e+02 </wgt>
<wgt id='47'> +5.2011500e+02 </wgt>
<wgt id='48'> +5.0770373e+02 </wgt>
<wgt id='49'> +4.9231261e+02 </wgt>
<wgt id='50'> +6.0137262e+02 </wgt>
<wgt id='51'> +4.8984346e+02 </wgt>
<wgt id='52'> +5.0068053e+02 </wgt>
<wgt id='53'> +4.9873707e+02 </wgt>
<wgt id='54'> +5.1657854e+02 </wgt>
<wgt id='55'> +4.8903982e+02 </wgt>
<wgt id='56'> +4.6302110e+02 </wgt>
<wgt id='57'> +5.1151784e+02 </wgt>
<wgt id='58'> +4.8866309e+02 </wgt>
<wgt id='59'> +5.2786446e+02 </wgt>
<wgt id='60'> +5.0419609e+02 </wgt>
<wgt id='61'> +4.4139542e+02 </wgt>
<wgt id='62'> +4.9149068e+02 </wgt>
<wgt id='63'> +5.1010293e+02 </wgt>
<wgt id='64'> +4.9675701e+02 </wgt>
<wgt id='65'> +5.4875230e+02 </wgt>
<wgt id='66'> +4.9798981e+02 </wgt>
<wgt id='67'> +5.0745923e+02 </wgt>
<wgt id='68'> +5.6235175e+02 </wgt>
<wgt id='69'> +5.0941078e+02 </wgt>
<wgt id='70'> +5.0272910e+02 </wgt>
<wgt id='71'> +5.0494100e+02 </wgt>
<wgt id='72'> +4.8299157e+02 </wgt>
<wgt id='73'> +4.8373521e+02 </wgt>
<wgt id='74'> +5.3903109e+02 </wgt>
<wgt id='75'> +5.1929504e+02 </wgt>
<wgt id='76'> +5.0174549e+02 </wgt>
<wgt id='77'> +4.9348883e+02 </wgt>
<wgt id='78'> +4.7598586e+02 </wgt>
<wgt id='79'> +5.0395837e+02 </wgt>
<wgt id='80'> +4.8559173e+02 </wgt>
<wgt id='81'> +4.9813265e+02 </wgt>
<wgt id='82'> +4.9414125e+02 </wgt>
<wgt id='83'> +5.0896976e+02 </wgt>
<wgt id='84'> +5.3579374e+02 </wgt>
<wgt id='85'> +5.0606419e+02 </wgt>
<wgt id='86'> +5.1007017e+02 </wgt>
<wgt id='87'> +5.0731749e+02 </wgt>
<wgt id='88'> +5.0507685e+02 </wgt>
<wgt id='89'> +5.0130677e+02 </wgt>
<wgt id='90'> +5.0968511e+02 </wgt>
<wgt id='91'> +5.0665486e+02 </wgt>
<wgt id='92'> +4.6251117e+02 </wgt>
<wgt id='93'> +5.0338094e+02 </wgt>
<wgt id='94'> +4.8646871e+02 </wgt>
<wgt id='95'> +5.0412516e+02 </wgt>
<wgt id='96'> +5.3812231e+02 </wgt>
<wgt id='97'> +4.9354491e+02 </wgt>
<wgt id='98'> +5.0020207e+02 </wgt>
<wgt id='99'> +4.7105997e+02 </wgt>
<wgt id='100'> +4.5838355e+02 </wgt>
<wgt id='101'> +5.6206465e+02 </wgt>
<wgt id='102'> +5.2658959e+02 </wgt>
<wgt id='103'> +5.3528657e+02 </wgt>
<wgt id='104'> +5.1371231e+02 </wgt>
<wgt id='105'> +5.2048986e+02 </wgt>
<wgt id='106'> +4.6431662e+02 </wgt>
<wgt id='107'> +4.8073142e+02 </wgt>
<wgt id='108'> +4.4950407e+02 </wgt>
<wgt id='109'> +4.7939051e+02 </wgt>
<wgt id='110'> +4.9556140e+02 </wgt>
<wgt id='111'> +4.9179687e+02 </wgt>
<wgt id='112'> +4.8502093e+02 </wgt>
<wgt id='113'> +4.7550925e+02 </wgt>
<wgt id='114'> +4.9883249e+02 </wgt>
<wgt id='115'> +4.7667470e+02 </wgt>
<wgt id='116'> +5.2690265e+02 </wgt>
<wgt id='117'> +4.9798499e+02 </wgt>
<wgt id='118'> +5.2885951e+02 </wgt>
<wgt id='119'> +5.0083808e+02 </wgt>
<wgt id='120'> +4.9607345e+02 </wgt>
<wgt id='121'> +4.9711187e+02 </wgt>
<wgt id='122'> +4.9890065e+02 </wgt>
<wgt id='123'> +5.0525708e+02 </wgt>
<wgt id='124'> +5.6066459e+02 </wgt>
<wgt id='125'> +5.7203080e+02 </wgt>
<wgt id='126'> +5.1654190e+02 </wgt>
<wgt id='127'> +5.1327515e+02 </wgt>
<wgt id='128'> +4.6227644e+02 </wgt>
<wgt id='129'> +5.5847340e+02 </wgt>
<wgt id='130'> +4.9790226e+02 </wgt>
<wgt id='131'> +5.1731210e+02 </wgt>
<wgt id='132'> +5.3409935e+02 </wgt>
<wgt id='133'> +5.2346384e+02 </wgt>
<wgt id='134'> +4.9654760e+02 </wgt>
<wgt id='135'> +5.0746905e+02 </wgt>
<wgt id='136'> +5.3231125e+02 </wgt>
<wgt id='137'> +4.8922755e+02 </wgt>
<wgt id='138'> +4.8075910e+02 </wgt>
<wgt id='139'> +5.1998637e+02 </wgt>
<wgt id='140'> +5.1494631e+02 </wgt>
<wgt id='141'> +5.2051126e+02 </wgt>
<wgt id='142'> +4.6120577e+02 </wgt>
<wgt id='143'> +5.1577909e+02 </wgt>
<wgt id='144'> +4.8928101e+02 </wgt>
<wgt id='145'> +4.9587942e+02 </wgt>
</rwgt>
</event>
<event>
 4      1 +5.0481800e+02 2.23491400e+02 7.54677100e-03 1.13130700e-01
       21 -1    0    0  503  502 +0.0000000000e+00 +0.0000000000e+00 +1.9996728894e+02 1.9996728894e+02 0.0000000000e+00 0.0000e+00 1.0000e+00
       21 -1    0    0  501  503 -0.0000000000e+00 -0.0000000000e+00 -1.1638749707e+03 1.1638749707e+03 0.0000000000e+00 0.0000e+00 -1.0000e+00
        6  1    1    2  501    0 +1.2862524361e+02 +5.8948802780e+01 -1.0862863370e+03 1.1090385118e+03 1.7300000000e+02 0.0000e+00 -1.0000e+00
       -6  1    1    2    0  502 -1.2862524361e+02 -5.8948802780e+01 +1.2237865527e+02 2.5480374783e+02 1.7300000000e+02 0.0000e+00 1.0000e+00
<mgrwt>
<rscale>  2 0.22349142E+03</rscale>
<asrwt>0</asrwt>
<pdfrwt beam="1">  1       21 0.30764199E-01 0.22349142E+03</pdfrwt>
<pdfrwt beam="2">  1       21 0.17905768E+00 0.22349142E+03</pdfrwt>
<totfact> 0.18188410E+03</totfact>
</mgrwt>
<rwgt>
<wgt id='1'> +6.9986754e+02 </wgt>
<wgt id='2'> +5.7584557e+02 </wgt>
<wgt id='3'> +5.0481800e+02 </wgt>
<wgt id='4'> +6.9986754e+02 </wgt>
<wgt id='5'> +3.6045186e+02 </wgt>
<wgt id='6'> +6.1446834e+02 </wgt>
<wgt id='7'> +5.0225249e+02 </wgt>
<wgt id='8'> +4.4079261e+02 </wgt>
<wgt id='9'> +6.1446834e+02 </wgt>
<wgt id='10'> +3.1696027e+02 </wgt>
<wgt id='11'> +5.3653615e+02 </wgt>
<wgt id='12'> +4.4020570e+02 </wgt>
<wgt id='13'> +3.8734044e+02 </wgt>
<wgt id='14'> +5.3653615e+02 </wgt>
<wgt id='15'> +2.8043124e+02 </wgt>
<wgt id='16'> +5.7497792e+02 </wgt>
<wgt id='17'> +4.8268045e+02 </wgt>
<wgt id='18'> +4.2635702e+02 </wgt>
<wgt id='19'> +5.7497792e+02 </wgt>
<wgt id='20'> +3.0885970e+02 </wgt>
<wgt id='21'> +4.2099387e+02 </wgt>
<wgt id='22'> +3.7228274e+02 </wgt>
<wgt id='23'> +5.0481800e+02 </wgt>
<wgt id='24'> +2.7159314e+02 </wgt>
<wgt id='25'> +4.4079261e+02 </wgt>
<wgt id='26'> +3.6898553e+02 </wgt>
<wgt id='27'> +3.2713833e+02 </wgt>
<wgt id='28'> +4.4079261e+02 </wgt>
<wgt id='29'> +2.4029259e+02 </wgt>
<wgt id='30'> +4.8561239e+02 </wgt>
<wgt id='31'> +4.1091720e+02 </wgt>
<wgt id='32'> +3.6484803e+02 </wgt>
<wgt id='33'> +4.8561239e+02 </wgt>
<wgt id='34'> +2.6760067e+02 </wgt>
<wgt id='35'> +4.2635702e+02 </wgt>
<wgt id='36'> +3.5840197e+02 </wgt>
<wgt id='37'> +3.1857485e+02 </wgt>
<wgt id='38'> +4.2635702e+02 </wgt>
<wgt id='39'> +2.3531236e+02 </wgt>
<wgt id='40'> +3.7228274e+02 </wgt>
<wgt id='41'> +3.1412605e+02 </wgt>
<wgt id='42'> +2.7994326e+02 </wgt>
<wgt id='43'> +3.7228274e+02 </wgt>
<wgt id='44'> +2.0819309e+02 </wgt>
<wgt id='45'> +5.0481800e+02 </wgt>
<wgt id='46'> +5.2547766e+02 </wgt>
<wgt id='47'> +5.3072021e+02 </wgt>
<wgt id='48'> +5.1005970e+02 </wgt>
<wgt id='49'> +4.7109912e+02 </wgt>
<wgt id='50'> +6.3227755e+02 </wgt>
<wgt id='51'> +4.7737743e+02 </wgt>
<wgt id='52'> +4.7975368e+02 </wgt>
<wgt id='53'> +5.0236351e+02 </wgt>
<wgt id='54'> +5.3257471e+02 </wgt>
<wgt id='55'> +5.3123565e+02 </wgt>
<wgt id='56'> +4.6528843e+02 </wgt>
<wgt id='57'> +5.2674475e+02 </wgt>
<wgt id='58'> +4.5734816e+02 </wgt>
<wgt id='59'> +5.4726875e+02 </wgt>
<wgt id='60'> +5.0324595e+02 </wgt>
<wgt id='61'> +4.4080366e+02 </wgt>
<wgt id='62'> +4.7259069e+02 </wgt>
<wgt id='63'> +5.2661345e+02 </wgt>
<wgt id='64'> +4.9669794e+02 </wgt>
<wgt id='65'> +5.0168073e+02 </wgt>
<wgt id='66'> +5.0773122e+02 </wgt>
<wgt id='67'> +5.0813387e+02 </wgt>
<wgt id='68'> +6.1201439e+02 </wgt>
<wgt id='69'> +5.4753922e+02 </wgt>
<wgt id='70'> +5.2874200e+02 </wgt>
<wgt id='71'> +4.7995759e+02 </wgt>
<wgt id='72'> +4.5118576e+02 </wgt>
<wgt id='73'> +4.5761131e+02 </wgt>
<wgt id='74'> +5.7845033e+02 </wgt>
<wgt id='75'> +5.4538350e+02 </wgt>
<wgt id='76'> +5.0987743e+02 </wgt>
<wgt id='77'> +4.8226394e+02 </wgt>
<wgt id='78'> +4.3980669e+02 </wgt>
<wgt id='79'> +5.3017308e+02 </wgt>
<wgt id='80'> +4.5439759e+02 </wgt>
<wgt id='81'> +5.1104315e+02 </wgt>
<wgt id='82'> +4.9247904e+02 </wgt>
<wgt id='83'> +5.0849232e+02 </wgt>
<wgt id='84'> +5.1785792e+02 </wgt>
<wgt id='85'> +4.7391737e+02 </wgt>
<wgt id='86'> +5.2972281e+02 </wgt>
<wgt id='87'> +5.0273508e+02 </wgt>
<wgt id='88'> +5.0147516e+02 </wgt>
<wgt id='89'> +4.5280114e+02 </wgt>
<wgt id='90'> +4.8262802e+02 </wgt>
<wgt id='91'> +4.6048595e+02 </wgt>
<wgt id='92'> +4.4928292e+02 </wgt>
<wgt id='93'> +5.1080667e+02 </wgt>
<wgt id='94'> +4.6314558e+02 </wgt>
<wgt id='95'> +5.1650661e+02 </wgt>
<wgt id='96'> +5.4838825e+02 </wgt>
<wgt id='97'> +4.6464017e+02 </wgt>
<wgt id='98'> +5.2950722e+02 </wgt>
<wgt id='99'> +4.3094254e+02 </wgt>
<wgt id='100'> +3.9301736e+02 </wgt>
<wgt id='101'> +6.0020279e+02 </wgt>
<wgt id='102'> +5.6825996e+02 </wgt>
<wgt id='103'> +5.0727582e+02 </wgt>
<wgt id='104'> +5.3998666e+02 </wgt>
<wgt id='105'> +5.1428089e+02 </wgt>
<wgt id='106'> +4.6474756e+02 </wgt>
<wgt id='107'> +4.7258620e+02 </wgt>
<wgt id='108'> +4.4812377e+02 </wgt>
<wgt id='109'> +4.8222984e+02 </wgt>
<wgt id='110'> +4.6870487e+02 </wgt>
<wgt id='111'> +4.8561386e+02 </wgt>
<wgt id='112'> +5.0685259e+02 </wgt>
<wgt id='113'> +5.0192958e+02 </wgt>
<wgt id='114'> +5.0698069e+02 </wgt>
<wgt id='115'> +4.6051559e+02 </wgt>
<wgt id='116'> +5.5966465e+02 </wgt>
<wgt id='117'> +4.9388757e+02 </wgt>
<wgt id='118'> +5.3431726e+02 </wgt>
<wgt id='119'> +5.3136626e+02 </wgt>
<wgt id='120'> +5.0134896e+02 </wgt>
<wgt id='121'> +4.9057098e+02 </wgt>
<wgt id='122'> +4.9270306e+02 </wgt>
<wgt id='123'> +4.9380501e+02 </wgt>
<wgt id='124'> +5.8539282e+02 </wgt>
<wgt id='125'> +6.3414384e+02 </wgt>
<wgt id='126'> +5.0757719e+02 </wgt>
<wgt id='127'> +4.9652631e+02 </wgt>
<wgt id='128'> +4.7241534e+02 </wgt>
<wgt id='129'> +5.3838899e+02 </wgt>
<wgt id='130'> +4.9601745e+02 </wgt>
<wgt id='131'> +4.8203257e+02 </wgt>
<wgt id='132'> +5.5078583e+02 </wgt>
<wgt id='133'> +5.5111999e+02 </wgt>
<wgt id='134'> +5.1674899e+02 </wgt>
<wgt id='135'> +4.9044984e+02 </wgt>
<wgt id='136'> +5.7867856e+02 </wgt>
<wgt id='137'> +5.1867659e+02 </wgt>
<wgt id='138'> +5.1460047e+02 </wgt>
<wgt id='139'> +5.2440162e+02 </wgt>
<wgt id='140'> +4.9833886e+02 </wgt>
<wgt id='141'> +5.6243998e+02 </wgt>
<wgt id='142'> +3.7609672e+02 </wgt>
<wgt id='143'> +5.1771225e+02 </wgt>
<wgt id='144'> +4.5966836e+02 </wgt>
<wgt id='145'> +4.7302260e+02 </wgt>
</rwgt>
</event>
<event>
 4      1 +5.0481800e+02 1.81447900e+02 7.54677100e-03 1.16640900e-01
       21 -1    0    0  501  502 +0.0000000000e+00 +0.0000000000e+00 +3.1276407552e+02 3.1276407552e+02 0.0000000000e+00 0.0000e+00 -1.0000e+00
       21 -1    0    0  502  503 -0.0000000000e+00 -0.0000000000e+00 -1.3399258229e+02 1.3399258229e+02 0.0000000000e+00 0.0000e+00 1.0000e+00
        6  1    1    2  501    0 -5.0924526301e+01 -2.0025971706e+01 +1.9281526010e+02 2.6476606929e+02 1.7300000000e+02 0.0000e+00 -1.0000e+00
       -6  1    1    2    0  503 +5.0924526301e+01 +2.0025971706e+01 -1.4043766868e+01 1.8199058852e+02 1.7300000000e+02 0.0000e+00 1.0000e+00
<mgrwt>
<rscale>  2 0.18144792E+03</rscale>
<asrwt>0</asrwt>
<pdfrwt beam="1">  1       21 0.48117550E-01 0.18144792E+03</pdfrwt>
<pdfrwt beam="2">  1       21 0.20614244E-01 0.18144792E+03</pdfrwt>
<totfact> 0.90416603E+04</totfact>
</mgrwt>
<rwgt>
<wgt id='1'> +6.4614835e+02 </wgt>
<wgt id='2'> +5.7655560e+02 </wgt>
<wgt id='3'> +5.0481800e+02 </wgt>
<wgt id='4'> +6.4614836e+02 </wgt>
<wgt id='5'> +4.8431559e+02 </wgt>
<wgt id='6'> +6.2117975e+02 </wgt>
<wgt id='7'> +5.4889235e+02 </wgt>
<wgt id='8'> +4.7602425e+02 </wgt>
<wgt id='9'> +6.2117975e+02 </wgt>
<wgt id='10'> +4.5626960e+02 </wgt>
<wgt id='11'> +5.8574897e+02 </wgt>
<wgt id='12'> +5.1701481e+02 </wgt>
<wgt id='13'> +4.4819444e+02 </wgt>
<wgt id='14'> +5.8574897e+02 </wgt>
<wgt id='15'> +4.2956550e+02 </wgt>
<wgt id='16'> +5.2510939e+02 </wgt>
<wgt id='17'> +4.7632402e+02 </wgt>
<wgt id='18'> +4.2425719e+02 </wgt>
<wgt id='19'> +5.2510939e+02 </wgt>
<wgt id='20'> +4.0834865e+02 </wgt>
<wgt id='21'> +4.5346991e+02 </wgt>
<wgt id='22'> +4.0005846e+02 </wgt>
<wgt id='23'> +5.0481800e+02 </wgt>
<wgt id='24'> +3.8470180e+02 </wgt>
<wgt id='25'> +4.7602425e+02 </wgt>
<wgt id='26'> +4.2713413e+02 </wgt>
<wgt id='27'> +3.7666983e+02 </wgt>
<wgt id='28'> +4.7602425e+02 </wgt>
<wgt id='29'> +3.6218634e+02 </wgt>
<wgt id='30'> +4.4131040e+02 </wgt>
<wgt id='31'> +4.0314637e+02 </wgt>
<wgt id='32'> +3.6169709e+02 </wgt>
<wgt id='33'> +4.4131040e+02 </wgt>
<wgt id='34'> +3.4889632e+02 </wgt>
<wgt id='35'> +4.2425718e+02 </wgt>
<wgt id='36'> +3.8380333e+02 </wgt>
<wgt id='37'> +3.4106666e+02 </wgt>
<wgt id='38'> +4.2425719e+02 </wgt>
<wgt id='39'> +3.2869226e+02 </wgt>
<wgt id='40'> +4.0005845e+02 </wgt>
<wgt id='41'> +3.6151352e+02 </wgt>
<wgt id='42'> +3.2112687e+02 </wgt>
<wgt id='43'> +4.0005846e+02 </wgt>
<wgt id='44'> +3.0945488e+02 </wgt>
<wgt id='45'> +5.0481800e+02 </wgt>
<wgt id='46'> +5.0339952e+02 </wgt>
<wgt id='47'> +5.2135747e+02 </wgt>
<wgt id='48'> +5.0516485e+02 </wgt>
<wgt id='49'> +5.0389426e+02 </wgt>
<wgt id='50'> +5.8363152e+02 </wgt>
<wgt id='51'> +4.9513562e+02 </wgt>
<wgt id='52'> +5.0188334e+02 </wgt>
<wgt id='53'> +5.1157108e+02 </wgt>
<wgt id='54'> +5.0765665e+02 </wgt>
<wgt id='55'> +4.5261174e+02 </wgt>
<wgt id='56'> +4.7150418e+02 </wgt>
<wgt id='57'> +4.9193937e+02 </wgt>
<wgt id='58'> +5.0981900e+02 </wgt>
<wgt id='59'> +4.9649805e+02 </wgt>
<wgt id='60'> +4.8353336e+02 </wgt>
<wgt id='61'> +4.9415062e+02 </wgt>
<wgt id='62'> +4.9790616e+02 </wgt>
<wgt id='63'> +5.0518871e+02 </wgt>
<wgt id='64'> +5.0150791e+02 </wgt>
<wgt id='65'> +5.9384243e+02 </wgt>
<wgt id='66'> +4.9249600e+02 </wgt>
<wgt id='67'> +5.0932162e+02 </wgt>
<wgt id='68'> +5.3870973e+02 </wgt>
<wgt id='69'> +4.9013854e+02 </wgt>
<wgt id='70'> +4.9681876e+02 </wgt>
<wgt id='71'> +5.1452469e+02 </wgt>
<wgt id='72'> +4.9439543e+02 </wgt>
<wgt id='73'> +4.9911152e+02 </wgt>
<wgt id='74'> +5.1801654e+02 </wgt>
<wgt id='75'> +5.1520048e+02 </wgt>
<wgt id='76'> +4.9091745e+02 </wgt>
<wgt id='77'> +4.8571537e+02 </wgt>
<wgt id='78'> +5.0662190e+02 </wgt>
<wgt id='79'> +4.8356135e+02 </wgt>
<wgt id='80'> +5.0114709e+02 </wgt>
<wgt id='81'> +4.9626947e+02 </wgt>
<wgt id='82'> +5.1891943e+02 </wgt>
<wgt id='83'> +5.1394786e+02 </wgt>
<wgt id='84'> +5.5267214e+02 </wgt>
<wgt id='85'> +5.3068866e+02 </wgt>
<wgt id='86'> +5.0039107e+02 </wgt>
<wgt id='87'> +5.0432047e+02 </wgt>
<wgt id='88'> +5.1255620e+02 </wgt>
<wgt id='89'> +5.1607098e+02 </wgt>
<wgt id='90'> +5.1023106e+02 </wgt>
<wgt id='91'> +5.3714272e+02 </wgt>
<wgt id='92'> +4.6826498e+02 </wgt>
<wgt id='93'> +4.9531321e+02 </wgt>
<wgt id='94'> +5.0341627e+02 </wgt>
<wgt id='95'> +4.8554811e+02 </wgt>
<wgt id='96'> +5.4249565e+02 </wgt>
<wgt id='97'> +5.1346803e+02 </wgt>
<wgt id='98'> +4.8147924e+02 </wgt>
<wgt id='99'> +4.9099704e+02 </wgt>
<wgt id='100'> +5.0373054e+02 </wgt>
<wgt id='101'> +5.2700598e+02 </wgt>
<wgt id='102'> +4.8774781e+02 </wgt>
<wgt id='103'> +5.4651412e+02 </wgt>
<wgt id='104'> +5.0282354e+02 </wgt>
<wgt id='105'> +5.2599937e+02 </wgt>
<wgt id='106'> +4.6758449e+02 </wgt>
<wgt id='107'> +5.0135939e+02 </wgt>
<wgt id='108'> +4.5534304e+02 </wgt>
<wgt id='109'> +4.7627868e+02 </wgt>
<wgt id='110'> +5.0651928e+02 </wgt>
<wgt id='111'> +4.9278644e+02 </wgt>
<wgt id='112'> +4.8318950e+02 </wgt>
<wgt id='113'> +4.6516264e+02 </wgt>
<wgt id='114'> +5.0617635e+02 </wgt>
<wgt id='115'> +5.0769671e+02 </wgt>
<wgt id='116'> +5.0184194e+02 </wgt>
<wgt id='117'> +5.1211471e+02 </wgt>
<wgt id='118'> +5.1521908e+02 </wgt>
<wgt id='119'> +4.8637669e+02 </wgt>
<wgt id='120'> +5.0376666e+02 </wgt>
<wgt id='121'> +4.9193205e+02 </wgt>
<wgt id='122'> +4.9874635e+02 </wgt>
<wgt id='123'> +5.1033405e+02 </wgt>
<wgt id='124'> +5.3599806e+02 </wgt>
<wgt id='125'> +5.3747480e+02 </wgt>
<wgt id='126'> +5.2275229e+02 </wgt>
<wgt id='127'> +5.1874319e+02 </wgt>
<wgt id='128'> +4.7000452e+02 </wgt>
<wgt id='129'> +5.7027729e+02 </wgt>
<wgt id='130'> +5.0765960e+02 </wgt>
<wgt id='131'> +5.4047088e+02 </wgt>
<wgt id='132'> +4.9858472e+02 </wgt>
<wgt id='133'> +4.9967804e+02 </wgt>
<wgt id='134'> +4.7504869e+02 </wgt>
<wgt id='135'> +5.1774242e+02 </wgt>
<wgt id='136'> +4.8358487e+02 </wgt>
<wgt id='137'> +4.7469131e+02 </wgt>
<wgt id='138'> +4.5685789e+02 </wgt>
<wgt id='139'> +5.1363395e+02 </wgt>
<wgt id='140'> +5.3723173e+02 </wgt>
<wgt id='141'> +5.0333378e+02 </wgt>
<wgt id='142'> +5.1021373e+02 </wgt>
<wgt id='143'> +4.9998428e+02 </wgt>
<wgt id='144'> +5.0594389e+02 </wgt>
<wgt id='145'> +5.0597225e+02 </wgt>
</rwgt>
</event>
<event>
 4      1 +5.0481800e+02 2.16640800e+02 7.54677100e-03 1.13641200e-01
       21 -1    0    0  501  502 +0.0000000000e+00 +0.0000000000e+00 +6.7089757337e+02 6.7089757337e+02 0.0000000000e+00 0.0000e+00 -1.0000e+00
       21 -1    0    0  502  503 -0.0000000000e+00 -0.0000000000e+00 -7.0098800719e+01 7.0098800719e+01 0.0000000000e+00 0.0000e+00 -1.0000e+00
        6  1    1    2  501    0 -1.0557111136e+02 +7.6544081523e+01 +3.1712645621e+02 3.8406047076e+02 1.7300000000e+02 0.0000e+00 -1.0000e+00
       -6  1    1    2    0  503 +1.0557111136e+02 -7.6544081523e+01 +2.8367231644e+02 3.5693590333e+02 1.7300000000e+02 0.0000e+00 -1.0000e+00
<mgrwt>
<rscale>  2 0.21664085E+03</rscale>
<asrwt>0</asrwt>
<pdfrwt beam="1">  1       21 0.10321501E+00 0.21664085E+03</pdfrwt>
<pdfrwt beam="2">  1       21 0.10784431E-01 0.21664085E+03</pdfrwt>
<totfact> 0.53399026E+04</totfact>
</mgrwt>
<rwgt>
<wgt id='1'> +6.5205596e+02 </wgt>
<wgt id='2'> +5.8056836e+02 </wgt>
<wgt id='3'> +5.0481800e+02 </wgt>
<wgt id='4'> +6.5205596e+02 </wgt>
<wgt id='5'> +5.0463365e+02 </wgt>
<wgt id='6'> +6.1553308e+02 </wgt>
<wgt id='7'> +5.4297564e+02 </wgt>
<wgt id='8'> +4.6990462e+02 </wgt>
<wgt id='9'> +6.1553309e+02 </wgt>
<wgt id='10'> +4.6973367e+02 </wgt>
<wgt id='11'> +5.7296261e+02 </wgt>
<wgt id='12'> +5.0543763e+02 </wgt>
<wgt id='13'> +4.3749701e+02 </wgt>
<wgt id='14'> +5.7296262e+02 </wgt>
<wgt id='15'> +4.3733820e+02 </wgt>
<wgt id='16'> +5.3477155e+02 </wgt>
<wgt id='17'> +4.8387655e+02 </wgt>
<wgt id='18'> +4.2610944e+02 </wgt>
<wgt id='19'> +5.3477156e+02 </wgt>
<wgt id='20'> +4.2596196e+02 </wgt>
<wgt id='21'> +4.5254478e+02 </wgt>
<wgt id='22'> +3.9663957e+02 </wgt>
<wgt id='23'> +5.0481800e+02 </wgt>
<wgt id='24'> +3.9650284e+02 </wgt>
<wgt id='25'> +4.6990462e+02 </wgt>
<wgt id='26'> +4.2125860e+02 </wgt>
<wgt id='27'> +3.6928478e+02 </wgt>
<wgt id='28'> +4.6990462e+02 </wgt>
<wgt id='29'> +3.6915778e+02 </wgt>
<wgt id='30'> +4.5139279e+02 </wgt>
<wgt id='31'> +4.1092528e+02 </wgt>
<wgt id='32'> +3.6443782e+02 </wgt>
<wgt id='33'> +4.5139280e+02 </wgt>
<wgt id='34'> +3.6431820e+02 </wgt>
<wgt id='35'> +4.2610944e+02 </wgt>
<wgt id='36'> +3.8431722e+02 </wgt>
<wgt id='37'> +3.3923318e+02 </wgt>
<wgt id='38'> +4.2610944e+02 </wgt>
<wgt id='39'> +3.3912230e+02 </wgt>
<wgt id='40'> +3.9663957e+02 </wgt>
<wgt id='41'> +3.5774787e+02 </wgt>
<wgt id='42'> +3.1583750e+02 </wgt>
<wgt id='43'> +3.9663957e+02 </wgt>
<wgt id='44'> +3.1573452e+02 </wgt>
<wgt id='45'> +5.0481800e+02 </wgt>
<wgt id='46'> +5.1469501e+02 </wgt>
<wgt id='47'> +5.1881706e+02 </wgt>
<wgt id='48'> +5.0696346e+02 </wgt>
<wgt id='49'> +4.9494924e+02 </wgt>
<wgt id='50'> +5.9409642e+02 </wgt>
<wgt id='51'> +4.9142883e+02 </wgt>
<wgt id='52'> +5.0222236e+02 </wgt>
<wgt id='53'> +4.9920644e+02 </wgt>
<wgt id='54'> +5.1435582e+02 </wgt>
<wgt id='55'> +4.8482224e+02 </wgt>
<wgt id='56'> +4.6476796e+02 </wgt>
<wgt id='57'> +5.0910178e+02 </wgt>
<wgt id='58'> +4.9331528e+02 </wgt>
<wgt id='59'> +5.2419587e+02 </wgt>
<wgt id='60'> +5.0383008e+02 </wgt>
<wgt id='61'> +4.4758015e+02 </wgt>
<wgt id='62'> +4.9332029e+02 </wgt>
<wgt id='63'> +5.0866346e+02 </wgt>
<wgt id='64'> +4.9720021e+02 </wgt>
<wgt id='65'> +5.5171154e+02 </wgt>
<wgt id='66'> +4.9712458e+02 </wgt>
<wgt id='67'> +5.0757500e+02 </wgt>
<wgt id='68'> +5.5656557e+02 </wgt>
<wgt id='69'> +5.0467379e+02 </wgt>
<wgt id='70'> +5.0136475e+02 </wgt>
<wgt id='71'> +5.0710419e+02 </wgt>
<wgt id='72'> +4.8711963e+02 </wgt>
<wgt id='73'> +4.8754905e+02 </wgt>
<wgt id='74'> +5.3441756e+02 </wgt>
<wgt id='75'> +5.1705362e+02 </wgt>
<wgt id='76'> +5.0060706e+02 </wgt>
<wgt id='77'> +4.9397100e+02 </wgt>
<wgt id='78'> +4.8102685e+02 </wgt>
<wgt id='79'> +5.0135088e+02 </wgt>
<wgt id='80'> +4.8921946e+02 </wgt>
<wgt id='81'> +4.9775139e+02 </wgt>
<wgt id='82'> +4.9688842e+02 </wgt>
<wgt id='83'> +5.0856587e+02 </wgt>
<wgt id='84'> +5.3636130e+02 </wgt>
<wgt id='85'> +5.0952257e+02 </wgt>
<wgt id='86'> +5.0786247e+02 </wgt>
<wgt id='87'> +5.0727177e+02 </wgt>
<wgt id='88'> +5.0535230e+02 </wgt>
<wgt id='89'> +5.0537843e+02 </wgt>
<wgt id='90'> +5.1143768e+02 </wgt>
<wgt id='91'> +5.1149860e+02 </wgt>
<wgt id='92'> +4.6567355e+02 </wgt>
<wgt id='93'> +5.0245648e+02 </wgt>
<wgt id='94'> +4.8992606e+02 </wgt>
<wgt id='95'> +5.0203064e+02 </wgt>
<wgt id='96'> +5.3642903e+02 </wgt>
<wgt id='97'> +4.9695538e+02 </wgt>
<wgt id='98'> +4.9732135e+02 </wgt>
<wgt id='99'> +4.7616309e+02 </wgt>
<wgt id='100'> +4.6759249e+02 </wgt>
<wgt id='101'> +5.5563991e+02 </wgt>
<wgt id='102'> +5.2035278e+02 </wgt>
<wgt id='103'> +5.3690956e+02 </wgt>
<wgt id='104'> +5.1047197e+02 </wgt>
<wgt id='105'> +5.2119677e+02 </wgt>
<wgt id='106'> +4.6595722e+02 </wgt>
<wgt id='107'> +4.8392566e+02 </wgt>
<wgt id='108'> +4.5138896e+02 </wgt>
<wgt id='109'> +4.7969187e+02 </wgt>
<wgt id='110'> +4.9862293e+02 </wgt>
<wgt id='111'> +4.9232956e+02 </wgt>
<wgt id='112'> +4.8367090e+02 </wgt>
<wgt id='113'> +4.7432023e+02 </wgt>
<wgt id='114'> +4.9863043e+02 </wgt>
<wgt id='115'> +4.7938026e+02 </wgt>
<wgt id='116'> +5.2204342e+02 </wgt>
<wgt id='117'> +4.9900082e+02 </wgt>
<wgt id='118'> +5.2655052e+02 </wgt>
<wgt id='119'> +4.9830826e+02 </wgt>
<wgt id='120'> +4.9484362e+02 </wgt>
<wgt id='121'> +4.9739840e+02 </wgt>
<wgt id='122'> +4.9930394e+02 </wgt>
<wgt id='123'> +5.0553232e+02 </wgt>
<wgt id='124'> +5.5558856e+02 </wgt>
<wgt id='125'> +5.6417894e+02 </wgt>
<wgt id='126'> +5.1694507e+02 </wgt>
<wgt id='127'> +5.1433482e+02 </wgt>
<wgt id='128'> +4.6259798e+02 </wgt>
<wgt id='129'> +5.5917713e+02 </wgt>
<wgt id='130'> +4.9884495e+02 </wgt>
<wgt id='131'> +5.2095021e+02 </wgt>
<wgt id='132'> +5.3038847e+02 </wgt>
<wgt id='133'> +5.1944480e+02 </wgt>
<wgt id='134'> +4.9437964e+02 </wgt>
<wgt id='135'> +5.0930718e+02 </wgt>
<wgt id='136'> +5.2559474e+02 </wgt>
<wgt id='137'> +4.8651977e+02 </wgt>
<wgt id='138'> +4.7639098e+02 </wgt>
<wgt id='139'> +5.1913086e+02 </wgt>
<wgt id='140'> +5.1734181e+02 </wgt>
<wgt id='141'> +5.1625958e+02 </wgt>
<wgt id='142'> +4.7158670e+02 </wgt>
<wgt id='143'> +5.1479502e+02 </wgt>
<wgt id='144'> +4.9332910e+02 </wgt>
<wgt id='145'> +4.9819404e+02 </wgt>
</rwgt>
</event>
<event>
 4      1 +5.0481800e+02 2.26500900e+02 7.54677100e-03 1.12912700e-01
       21 -1    0    0  503  502 +0.0000000000e+00 +0.0000000000e+00 +7.0574608990e+01 7.0574608990e+01 0.0000000000e+00 0.0000e+00 1.0000e+00
       21 -1    0    0  501  503 -0.0000000000e+00 -0.0000000000e+00 -7.9215221681e+02 7.9215221681e+02 0.0000000000e+00 0.0000e+00 -1.0000e+00
        6  1    1    2  501    0 +4.2867658659e+01 +1.3977128144e+02 -4.8456695534e+02 5.3489043877e+02 1.7300000000e+02 0.0000e+00 1.0000e+00
       -6  1    1    2    0  502 -4.2867658659e+01 -1.3977128144e+02 -2.3701065248e+02 3.2783638704e+02 1.7300000000e+02 0.0000e+00 -1.0000e+00
<mgrwt>
<rscale>  2 0.22650088E+03</rscale>
<asrwt>0</asrwt>
<pdfrwt beam="1">  1       21 0.10857633E-01 0.22650088E+03</pdfrwt>
<pdfrwt beam="2">  1       21 0.12186957E+00 0.22650088E+03</pdfrwt>
<totfact> 0.34986187E+04</totfact>
</mgrwt>
<rwgt>
<wgt id='1'> +6.5757234e+02 </wgt>
<wgt id='2'> +5.7071041e+02 </wgt>
<wgt id='3'> +5.0481800e+02 </wgt>
<wgt id='4'> +6.5757234e+02 </wgt>
<wgt id='5'> +4.9687453e+02 </wgt>
<wgt id='6'> +6.1401947e+02 </wgt>
<wgt id='7'> +5.2770064e+02 </wgt>
<wgt id='8'> +4.6591468e+02 </wgt>
<wgt id='9'> +6.1401948e+02 </wgt>
<wgt id='10'> +4.5860679e+02 </wgt>
<wgt id='11'> +5.6670064e+02 </wgt>
<wgt id='12'> +4.8722347e+02 </wgt>
<wgt id='13'> +4.3040460e+02 </wgt>
<wgt id='14'> +5.6670064e+02 </wgt>
<wgt id='15'> +4.2368808e+02 </wgt>
<wgt id='16'> +5.4062512e+02 </wgt>
<wgt id='17'> +4.7785639e+02 </wgt>
<wgt id='18'> +4.2646515e+02 </wgt>
<wgt id='19'> +5.4062512e+02 </wgt>
<wgt id='20'> +4.2011604e+02 </wgt>
<wgt id='21'> +4.4184426e+02 </wgt>
<wgt id='22'> +3.9360002e+02 </wgt>
<wgt id='23'> +5.0481800e+02 </wgt>
<wgt id='24'> +3.8776001e+02 </wgt>
<wgt id='25'> +4.6591468e+02 </wgt>
<wgt id='26'> +4.0795269e+02 </wgt>
<wgt id='27'> +3.6360146e+02 </wgt>
<wgt id='28'> +4.6591468e+02 </wgt>
<wgt id='29'> +3.5823563e+02 </wgt>
<wgt id='30'> +4.5671465e+02 </wgt>
<wgt id='31'> +4.0659411e+02 </wgt>
<wgt id='32'> +3.6502562e+02 </wgt>
<wgt id='33'> +4.5671465e+02 </wgt>
<wgt id='34'> +3.5985960e+02 </wgt>
<wgt id='35'> +4.2646515e+02 </wgt>
<wgt id='36'> +3.7595243e+02 </wgt>
<wgt id='37'> +3.3689527e+02 </wgt>
<wgt id='38'> +4.2646515e+02 </wgt>
<wgt id='39'> +3.3214433e+02 </wgt>
<wgt id='40'> +3.9360002e+02 </wgt>
<wgt id='41'> +3.4711508e+02 </wgt>
<wgt id='42'> +3.1121851e+02 </wgt>
<wgt id='43'> +3.9360002e+02 </wgt>
<wgt id='44'> +3.0685457e+02 </wgt>
<wgt id='45'> +5.0481800e+02 </wgt>
<wgt id='46'> +5.1728542e+02 </wgt>
<wgt id='47'> +5.1868067e+02 </wgt>
<wgt id='48'> +5.0703454e+02 </wgt>
<wgt id='49'> +4.8972422e+02 </wgt>
<wgt id='50'> +5.9786277e+02 </wgt>
<wgt id='51'> +4.8854418e+02 </wgt>
<wgt id='52'> +4.9906576e+02 </wgt>
<wgt id='53'> +4.9820149e+02 </wgt>
<wgt id='54'> +5.1875924e+02 </wgt>
<wgt id='55'> +4.9858416e+02 </wgt>
<wgt id='56'> +4.6510176e+02 </wgt>
<wgt id='57'> +5.1556415e+02 </wgt>
<wgt id='58'> +4.8586550e+02 </wgt>
<wgt id='59'> +5.3186531e+02 </wgt>
<wgt id='60'> +5.0647256e+02 </wgt>
<wgt id='61'> +4.3954856e+02 </wgt>
<wgt id='62'> +4.8928102e+02 </wgt>
<wgt id='63'> +5.1204062e+02 </wgt>
<wgt id='64'> +4.9806392e+02 </wgt>
<wgt id='65'> +5.3704918e+02 </wgt>
<wgt id='66'> +4.9917189e+02 </wgt>
<wgt id='67'> +5.0718332e+02 </wgt>
<wgt id='68'> +5.6575009e+02 </wgt>
<wgt id='69'> +5.1174815e+02 </wgt>
<wgt id='70'> +5.0572971e+02 </wgt>
<wgt id='71'> +5.0194046e+02 </wgt>
<wgt id='72'> +4.8338891e+02 </wgt>
<wgt id='73'> +4.8127285e+02 </wgt>
<wgt id='74'> +5.4186361e+02 </wgt>
<wgt id='75'> +5.2045824e+02 </wgt>
<wgt id='76'> +5.0457663e+02 </wgt>
<wgt id='77'> +4.9335594e+02 </wgt>
<wgt id='78'> +4.7154573e+02 </wgt>
<wgt id='79'> +5.0789467e+02 </wgt>
<wgt id='80'> +4.8232944e+02 </wgt>
<wgt id='81'> +5.0023260e+02 </wgt>
<wgt id='82'> +4.9140100e+02 </wgt>
<wgt id='83'> +5.0661273e+02 </wgt>
<wgt id='84'> +5.2987228e+02 </wgt>
<wgt id='85'> +5.0022671e+02 </wgt>
<wgt id='86'> +5.1125472e+02 </wgt>
<wgt id='87'> +5.0687668e+02 </wgt>
<wgt id='88'> +5.0244017e+02 </wgt>
<wgt id='89'> +4.9549154e+02 </wgt>
<wgt id='90'> +5.0731954e+02 </wgt>
<wgt id='91'> +4.9956310e+02 </wgt>
<wgt id='92'> +4.6538142e+02 </wgt>
<wgt id='93'> +5.0413620e+02 </wgt>
<wgt id='94'> +4.8418063e+02 </wgt>
<wgt id='95'> +5.0883603e+02 </wgt>
<wgt id='96'> +5.3464748e+02 </wgt>
<wgt id='97'> +4.8991662e+02 </wgt>
<wgt id='98'> +5.0421081e+02 </wgt>
<wgt id='99'> +4.6717276e+02 </wgt>
<wgt id='100'> +4.5156328e+02 </wgt>
<wgt id='101'> +5.6483876e+02 </wgt>
<wgt id='102'> +5.3149381e+02 </wgt>
<wgt id='103'> +5.2967526e+02 </wgt>
<wgt id='104'> +5.1547833e+02 </wgt>
<wgt id='105'> +5.2036853e+02 </wgt>
<wgt id='106'> +4.6804909e+02 </wgt>
<wgt id='107'> +4.8074555e+02 </wgt>
<wgt id='108'> +4.5280458e+02 </wgt>
<wgt id='109'> +4.8274183e+02 </wgt>
<wgt id='110'> +4.9332499e+02 </wgt>
<wgt id='111'> +4.9256203e+02 </wgt>
<wgt id='112'> +4.8924384e+02 </wgt>
<wgt id='113'> +4.8099960e+02 </wgt>
<wgt id='114'> +5.0138281e+02 </wgt>
<wgt id='115'> +4.7388309e+02 </wgt>
<wgt id='116'> +5.2935708e+02 </wgt>
<wgt id='117'> +4.9650606e+02 </wgt>
<wgt id='118'> +5.2829089e+02 </wgt>
<wgt id='119'> +5.0629966e+02 </wgt>
<wgt id='120'> +4.9710224e+02 </wgt>
<wgt id='121'> +4.9910950e+02 </wgt>
<wgt id='122'> +4.9911193e+02 </wgt>
<wgt id='123'> +5.0281632e+02 </wgt>
<wgt id='124'> +5.6150693e+02 </wgt>
<wgt id='125'> +5.7671094e+02 </wgt>
<wgt id='126'> +5.1358214e+02 </wgt>
<wgt id='127'> +5.1026298e+02 </wgt>
<wgt id='128'> +4.6400333e+02 </wgt>
<wgt id='129'> +5.5330541e+02 </wgt>
<wgt id='130'> +4.9445743e+02 </wgt>
<wgt id='131'> +5.1133088e+02 </wgt>
<wgt id='132'> +5.3851941e+02 </wgt>
<wgt id='133'> +5.2647596e+02 </wgt>
<wgt id='134'> +5.0119302e+02 </wgt>
<wgt id='135'> +5.0477963e+02 </wgt>
<wgt id='136'> +5.4108121e+02 </wgt>
<wgt id='137'> +4.9240879e+02 </wgt>
<wgt id='138'> +4.8418086e+02 </wgt>
<wgt id='139'> +5.2002771e+02 </wgt>
<wgt id='140'> +5.1140235e+02 </wgt>
<wgt id='141'> +5.2442010e+02 </wgt>
<wgt id='142'> +4.5121681e+02 </wgt>
<wgt id='143'> +5.1743708e+02 </wgt>
<wgt id='144'> +4.8689920e+02 </wgt>
<wgt id='145'> +4.9279817e+02 </wgt>
</rwgt>
</event>
<event>
 4      1 +5.0481800e+02 1.74870600e+02 7.54677100e-03 1.17286200e-01
       21 -1    0    0  503  502 +0.0000000000e+00 +0.0000000000e+00 +1.4466116424e+02 1.4466116424e+02 0.0000000000e+00 0.0000e+00 -1.0000e+00
       21 -1    0    0  501  503 -0.0000000000e+00 -0.0000000000e+00 -3.5653611998e+02 3.5653611998e+02 0.0000000000e+00 0.0000e+00 -1.0000e+00
        6  1    1    2  501    0 +2.4756984067e+01 -6.1489127343e+00 -2.6583134028e+02 3.1819179572e+02 1.7300000000e+02 0.0000e+00 -1.0000e+00
       -6  1    1    2    0  502 -2.4756984067e+01 +6.1489127343e+00 +5.3956384546e+01 1.8300548850e+02 1.7300000000e+02 0.0000e+00 -1.0000e+00
<mgrwt>
<rscale>  2 0.17487057E+03</rscale>
<asrwt>0</asrwt>
<pdfrwt beam="1">  1       21 0.22255564E-01 0.17487057E+03</pdfrwt>
<pdfrwt beam="2">  1       21 0.54851711E-01 0.17487057E+03</pdfrwt>
<totfact> 0.59729996E+04</totfact>
</mgrwt>
<rwgt>
<wgt id='1'> +6.5182592e+02 </wgt>
<wgt id='2'> +7.8434063e+02 </wgt>
<wgt id='3'> +5.0481800e+02 </wgt>
<wgt id='4'> +6.5182591e+02 </wgt>
<wgt id='5'> +4.6033254e+02 </wgt>
<wgt id='6'> +6.2229297e+02 </wgt>
<wgt id='7'> +7.5315235e+02 </wgt>
<wgt id='8'> +4.7297813e+02 </wgt>
<wgt id='9'> +6.2229297e+02 </wgt>
<wgt id='10'> +4.3079157e+02 </wgt>
<wgt id='11'> +5.8304373e+02 </wgt>
<wgt id='12'> +7.1474558e+02 </wgt>
<wgt id='13'> +4.4258740e+02 </wgt>
<wgt id='14'> +5.8304373e+02 </wgt>
<wgt id='15'> +4.0315358e+02 </wgt>
<wgt id='16'> +5.2877579e+02 </wgt>
<wgt id='17'> +6.2550124e+02 </wgt>
<wgt id='18'> +4.2374777e+02 </wgt>
<wgt id='19'> +5.2877578e+02 </wgt>
<wgt id='20'> +3.8890419e+02 </wgt>
<wgt id='21'> +6.0062900e+02 </wgt>
<wgt id='22'> +3.9702116e+02 </wgt>
<wgt id='23'> +5.0481800e+02 </wgt>
<wgt id='24'> +3.6394700e+02 </wgt>
<wgt id='25'> +4.7297814e+02 </wgt>
<wgt id='26'> +5.7000012e+02 </wgt>
<wgt id='27'> +3.7151097e+02 </wgt>
<wgt id='28'> +4.7297813e+02 </wgt>
<wgt id='29'> +3.4059751e+02 </wgt>
<wgt id='30'> +4.4385811e+02 </wgt>
<wgt id='31'> +5.1307111e+02 </wgt>
<wgt id='32'> +3.6101780e+02 </wgt>
<wgt id='33'> +4.4385810e+02 </wgt>
<wgt id='34'> +3.3289140e+02 </wgt>
<wgt id='35'> +4.2374777e+02 </wgt>
<wgt id='36'> +4.9266951e+02 </wgt>
<wgt id='37'> +3.3824769e+02 </wgt>
<wgt id='38'> +4.2374777e+02 </wgt>
<wgt id='39'> +3.1152873e+02 </wgt>
<wgt id='40'> +3.9702117e+02 </wgt>
<wgt id='41'> +4.6754598e+02 </wgt>
<wgt id='42'> +3.1651393e+02 </wgt>
<wgt id='43'> +3.9702116e+02 </wgt>
<wgt id='44'> +2.9154220e+02 </wgt>
<wgt id='45'> +5.0481800e+02 </wgt>
<wgt id='46'> +5.0584013e+02 </wgt>
<wgt id='47'> +5.2274730e+02 </wgt>
<wgt id='48'> +5.0662963e+02 </wgt>
<wgt id='49'> +5.0360698e+02 </wgt>
<wgt id='50'> +5.9124323e+02 </wgt>
<wgt id='51'> +4.9499397e+02 </wgt>
<wgt id='52'> +5.0261517e+02 </wgt>
<wgt id='53'> +5.0949935e+02 </wgt>
<wgt id='54'> +5.0779856e+02 </wgt>
<wgt id='55'> +4.5209500e+02 </wgt>
<wgt id='56'> +4.6821092e+02 </wgt>
<wgt id='57'> +4.9216003e+02 </wgt>
<wgt id='58'> +5.0750732e+02 </wgt>
<wgt id='59'> +4.9950653e+02 </wgt>
<wgt id='60'> +4.8595702e+02 </wgt>
<wgt id='61'> +4.8804088e+02 </wgt>
<wgt id='62'> +4.9822303e+02 </wgt>
<wgt id='63'> +5.0512969e+02 </wgt>
<wgt id='64'> +4.9921420e+02 </wgt>
<wgt id='65'> +5.9406745e+02 </wgt>
<wgt id='66'> +4.9274081e+02 </wgt>
<wgt id='67'> +5.0926674e+02 </wgt>
<wgt id='68'> +5.4213854e+02 </wgt>
<wgt id='69'> +4.9284922e+02 </wgt>
<wgt id='70'> +4.9614985e+02 </wgt>
<wgt id='71'> +5.1447278e+02 </wgt>
<wgt id='72'> +4.9022797e+02 </wgt>
<wgt id='73'> +4.9778664e+02 </wgt>
<wgt id='74'> +5.2093693e+02 </wgt>
<wgt id='75'> +5.1587686e+02 </wgt>
<wgt id='76'> +4.9034178e+02 </wgt>
<wgt id='77'> +4.8712709e+02 </wgt>
<wgt id='78'> +5.0354970e+02 </wgt>
<wgt id='79'> +4.8493816e+02 </wgt>
<wgt id='80'> +4.9994582e+02 </wgt>
<wgt id='81'> +4.9513794e+02 </wgt>
<wgt id='82'> +5.1716594e+02 </wgt>
<wgt id='83'> +5.1513724e+02 </wgt>
<wgt id='84'> +5.5427414e+02 </wgt>
<wgt id='85'> +5.3071879e+02 </wgt>
<wgt id='86'> +5.0181921e+02 </wgt>
<wgt id='87'> +5.0527429e+02 </wgt>
<wgt id='88'> +5.1310655e+02 </wgt>
<wgt id='89'> +5.1741097e+02 </wgt>
<wgt id='90'> +5.1141009e+02 </wgt>
<wgt id='91'> +5.3642624e+02 </wgt>
<wgt id='92'> +4.6357138e+02 </wgt>
<wgt id='93'> +4.9659980e+02 </wgt>
<wgt id='94'> +5.0150787e+02 </wgt>
<wgt id='95'> +4.8471093e+02 </wgt>
<wgt id='96'> +5.4583661e+02 </wgt>
<wgt id='97'> +5.1192923e+02 </wgt>
<wgt id='98'> +4.8190156e+02 </wgt>
<wgt id='99'> +4.8968571e+02 </wgt>
<wgt id='100'> +4.9914347e+02 </wgt>
<wgt id='101'> +5.3260031e+02 </wgt>
<wgt id='102'> +4.9205014e+02 </wgt>
<wgt id='103'> +5.4908352e+02 </wgt>
<wgt id='104'> +5.0403212e+02 </wgt>
<wgt id='105'> +5.2463499e+02 </wgt>
<wgt id='106'> +4.6322578e+02 </wgt>
<wgt id='107'> +4.9699896e+02 </wgt>
<wgt id='108'> +4.5073328e+02 </wgt>
<wgt id='109'> +4.7364477e+02 </wgt>
<wgt id='110'> +5.0572927e+02 </wgt>
<wgt id='111'> +4.9128696e+02 </wgt>
<wgt id='112'> +4.8047497e+02 </wgt>
<wgt id='113'> +4.6284761e+02 </wgt>
<wgt id='114'> +5.0214348e+02 </wgt>
<wgt id='115'> +5.0288361e+02 </wgt>
<wgt id='116'> +5.0556869e+02 </wgt>
<wgt id='117'> +5.1044516e+02 </wgt>
<wgt id='118'> +5.1872920e+02 </wgt>
<wgt id='119'> +4.8511756e+02 </wgt>
<wgt id='120'> +5.0082297e+02 </wgt>
<wgt id='121'> +4.9079586e+02 </wgt>
<wgt id='122'> +4.9828423e+02 </wgt>
<wgt id='123'> +5.1116071e+02 </wgt>
<wgt id='124'> +5.4085967e+02 </wgt>
<wgt id='125'> +5.4194823e+02 </wgt>
<wgt id='126'> +5.2427576e+02 </wgt>
<wgt id='127'> +5.2014905e+02 </wgt>
<wgt id='128'> +4.6701515e+02 </wgt>
<wgt id='129'> +5.7238748e+02 </wgt>
<wgt id='130'> +5.0802639e+02 </wgt>
<wgt id='131'> +5.4048351e+02 </wgt>
<wgt id='132'> +5.0184486e+02 </wgt>
<wgt id='133'> +5.0248746e+02 </wgt>
<wgt id='134'> +4.7551530e+02 </wgt>
<wgt id='135'> +5.1784198e+02 </wgt>
<wgt id='136'> +4.8622049e+02 </wgt>
<wgt id='137'> +4.7533080e+02 </wgt>
<wgt id='138'> +4.5921688e+02 </wgt>
<wgt id='139'> +5.1525622e+02 </wgt>
<wgt id='140'> +5.3580519e+02 </wgt>
<wgt id='141'> +5.0419496e+02 </wgt>
<wgt id='142'> +5.0634899e+02 </wgt>
<wgt id='143'> +5.0163459e+02 </wgt>
<wgt id='144'> +5.0400966e+02 </wgt>
<wgt id='145'> +5.0603562e+02 </wgt>
</rwgt>
</event>
<event>
 4      1 +5.0481800e+02 1.95454800e+02 7.54677100e-03 1.15363100e-01
       21 -1    0    0  501  502 +0.0000000000e+00 +0.0000000000e+00 +1.8241150062e+03 1.8241150062e+03 0.0000000000e+00 0.0000e+00 1.0000e+00
       21 -1    0    0  502  503 -0.0000000000e+00 -0.0000000000e+00 -2.4707582182e+01 2.4707582182e+01 0.0000000000e+00 0.0000e+00 1.0000e+00
        6  1    1    2  501    0 +2.2217472499e+01 -8.8203990329e+01 +1.2605354528e+03 1.2755987566e+03 1.7300000000e+02 0.0000e+00 1.0000e+00
       -6  1    1    2    0  503 -2.2217472499e+01 +8.8203990329e+01 +5.3887197122e+02 5.7322383181e+02 1.7300000000e+02 0.0000e+00 1.0000e+00
<mgrwt>
<rscale>  2 0.19545475E+03</rscale>
<asrwt>0</asrwt>
<pdfrwt beam="1">  1       21 0.28063297E+00 0.19545475E+03</pdfrwt>
<pdfrwt beam="2">  1       21 0.38011679E-02 0.19545475E+03</pdfrwt>
<totfact> 0.18782660E+04</totfact>
</mgrwt>
<rwgt>
<wgt id='1'> +6.9748013e+02 </wgt>
<wgt id='2'> +7.1216448e+02 </wgt>
<wgt id='3'> +5.0481800e+02 </wgt>
<wgt id='4'> +6.9748012e+02 </wgt>
<wgt id='5'> +4.8648036e+02 </wgt>
<wgt id='6'> +6.1903043e+02 </wgt>
<wgt id='7'> +6.3246731e+02 </wgt>
<wgt id='8'> +4.4350842e+02 </wgt>
<wgt id='9'> +6.1903043e+02 </wgt>
<wgt id='10'> +4.2765476e+02 </wgt>
<wgt id='11'> +5.4384988e+02 </wgt>
<wgt id='12'> +5.5560846e+02 </wgt>
<wgt id='13'> +3.9198478e+02 </wgt>
<wgt id='14'> +5.4384988e+02 </wgt>
<wgt id='15'> +3.7824988e+02 </wgt>
<wgt id='16'> +5.6879356e+02 </wgt>
<wgt id='17'> +5.7957356e+02 </wgt>
<wgt id='18'> +4.2517322e+02 </wgt>
<wgt id='19'> +5.6879355e+02 </wgt>
<wgt id='20'> +4.1047357e+02 </wgt>
<wgt id='21'> +5.1471443e+02 </wgt>
<wgt id='22'> +3.7353641e+02 </wgt>
<wgt id='23'> +5.0481800e+02 </wgt>
<wgt id='24'> +3.6083878e+02 </wgt>
<wgt id='25'> +4.4350842e+02 </wgt>
<wgt id='26'> +4.5216517e+02 </wgt>
<wgt id='27'> +3.3014162e+02 </wgt>
<wgt id='28'> +4.4350842e+02 </wgt>
<wgt id='29'> +3.1915282e+02 </wgt>
<wgt id='30'> +4.7905540e+02 </wgt>
<wgt id='31'> +4.8754493e+02 </wgt>
<wgt id='32'> +3.6296802e+02 </wgt>
<wgt id='33'> +4.7905540e+02 </wgt>
<wgt id='34'> +3.5093968e+02 </wgt>
<wgt id='35'> +4.2517322e+02 </wgt>
<wgt id='36'> +4.3298457e+02 </wgt>
<wgt id='37'> +3.1888596e+02 </wgt>
<wgt id='38'> +4.2517322e+02 </wgt>
<wgt id='39'> +3.0850378e+02 </wgt>
<wgt id='40'> +3.7353641e+02 </wgt>
<wgt id='41'> +3.8036731e+02 </wgt>
<wgt id='42'> +2.8184007e+02 </wgt>
<wgt id='43'> +3.7353641e+02 </wgt>
<wgt id='44'> +2.7286383e+02 </wgt>
<wgt id='45'> +5.0481800e+02 </wgt>
<wgt id='46'> +5.1224264e+02 </wgt>
<wgt id='47'> +5.6987147e+02 </wgt>
<wgt id='48'> +5.0484945e+02 </wgt>
<wgt id='49'> +4.4477035e+02 </wgt>
<wgt id='50'> +5.8909153e+02 </wgt>
<wgt id='51'> +4.7327781e+02 </wgt>
<wgt id='52'> +4.2280775e+02 </wgt>
<wgt id='53'> +5.4349646e+02 </wgt>
<wgt id='54'> +5.4040990e+02 </wgt>
<wgt id='55'> +6.2822940e+02 </wgt>
<wgt id='56'> +4.9651709e+02 </wgt>
<wgt id='57'> +5.4858120e+02 </wgt>
<wgt id='58'> +4.2945345e+02 </wgt>
<wgt id='59'> +5.4804157e+02 </wgt>
<wgt id='60'> +4.8990275e+02 </wgt>
<wgt id='61'> +3.9440606e+02 </wgt>
<wgt id='62'> +4.3665304e+02 </wgt>
<wgt id='63'> +5.4135145e+02 </wgt>
<wgt id='64'> +5.0930372e+02 </wgt>
<wgt id='65'> +3.9212421e+02 </wgt>
<wgt id='66'> +5.2413770e+02 </wgt>
<wgt id='67'> +5.0220174e+02 </wgt>
<wgt id='68'> +7.0758421e+02 </wgt>
<wgt id='69'> +5.9646858e+02 </wgt>
<wgt id='70'> +6.3317992e+02 </wgt>
<wgt id='71'> +4.3316927e+02 </wgt>
<wgt id='72'> +4.2234922e+02 </wgt>
<wgt id='73'> +4.4145277e+02 </wgt>
<wgt id='74'> +6.4815753e+02 </wgt>
<wgt id='75'> +6.1922026e+02 </wgt>
<wgt id='76'> +5.1922354e+02 </wgt>
<wgt id='77'> +4.4339295e+02 </wgt>
<wgt id='78'> +4.0784958e+02 </wgt>
<wgt id='79'> +5.8072466e+02 </wgt>
<wgt id='80'> +4.0013137e+02 </wgt>
<wgt id='81'> +5.5683812e+02 </wgt>
<wgt id='82'> +5.0228636e+02 </wgt>
<wgt id='83'> +5.0057188e+02 </wgt>
<wgt id='84'> +4.4896193e+02 </wgt>
<wgt id='85'> +4.1938576e+02 </wgt>
<wgt id='86'> +5.6055342e+02 </wgt>
<wgt id='87'> +4.7830546e+02 </wgt>
<wgt id='88'> +5.1760214e+02 </wgt>
<wgt id='89'> +3.3864698e+02 </wgt>
<wgt id='90'> +4.1748124e+02 </wgt>
<wgt id='91'> +3.8235161e+02 </wgt>
<wgt id='92'> +4.7863408e+02 </wgt>
<wgt id='93'> +5.2721461e+02 </wgt>
<wgt id='94'> +4.4431190e+02 </wgt>
<wgt id='95'> +5.2804520e+02 </wgt>
<wgt id='96'> +5.1663286e+02 </wgt>
<wgt id='97'> +4.2538020e+02 </wgt>
<wgt id='98'> +6.0710289e+02 </wgt>
<wgt id='99'> +3.8330336e+02 </wgt>
<wgt id='100'> +3.2890274e+02 </wgt>
<wgt id='101'> +6.0617170e+02 </wgt>
<wgt id='102'> +5.9491353e+02 </wgt>
<wgt id='103'> +4.3019913e+02 </wgt>
<wgt id='104'> +5.6784441e+02 </wgt>
<wgt id='105'> +5.1369374e+02 </wgt>
<wgt id='106'> +5.1858483e+02 </wgt>
<wgt id='107'> +5.2050295e+02 </wgt>
<wgt id='108'> +4.7564524e+02 </wgt>
<wgt id='109'> +5.0873274e+02 </wgt>
<wgt id='110'> +4.1654140e+02 </wgt>
<wgt id='111'> +4.7648684e+02 </wgt>
<wgt id='112'> +5.3272635e+02 </wgt>
<wgt id='113'> +6.0996318e+02 </wgt>
<wgt id='114'> +5.0462012e+02 </wgt>
<wgt id='115'> +4.7554802e+02 </wgt>
<wgt id='116'> +5.7845906e+02 </wgt>
<wgt id='117'> +5.1133394e+02 </wgt>
<wgt id='118'> +5.0109156e+02 </wgt>
<wgt id='119'> +5.6884032e+02 </wgt>
<wgt id='120'> +4.9812300e+02 </wgt>
<wgt id='121'> +4.6710167e+02 </wgt>
<wgt id='122'> +4.7909137e+02 </wgt>
<wgt id='123'> +4.4999240e+02 </wgt>
<wgt id='124'> +5.6365447e+02 </wgt>
<wgt id='125'> +7.1328773e+02 </wgt>
<wgt id='126'> +4.7745071e+02 </wgt>
<wgt id='127'> +4.5366374e+02 </wgt>
<wgt id='128'> +5.0777742e+02 </wgt>
<wgt id='129'> +4.7427959e+02 </wgt>
<wgt id='130'> +5.0690514e+02 </wgt>
<wgt id='131'> +4.2594376e+02 </wgt>
<wgt id='132'> +5.4036371e+02 </wgt>
<wgt id='133'> +5.6612167e+02 </wgt>
<wgt id='134'> +5.6475679e+02 </wgt>
<wgt id='135'> +4.6789697e+02 </wgt>
<wgt id='136'> +6.2578072e+02 </wgt>
<wgt id='137'> +5.9643633e+02 </wgt>
<wgt id='138'> +5.5618107e+02 </wgt>
<wgt id='139'> +5.2564769e+02 </wgt>
<wgt id='140'> +4.8314374e+02 </wgt>
<wgt id='141'> +6.5268114e+02 </wgt>
<wgt id='142'> +2.4675521e+02 </wgt>
<wgt id='143'> +5.1044143e+02 </wgt>
<wgt id='144'> +4.3235960e+02 </wgt>
<wgt id='145'> +4.5048450e+02 </wgt>
</rwgt>
</event>
<event>
 4      1 +5.0481800e+02 2.59483200e+02 7.54677100e-03 1.10745400e-01
       21 -1    0    0  503  502 +0.0000000000e+00 +0.0000000000e+00 +7.1124122969e+02 7.1124122969e+02 0.0000000000e+00 0.0000e+00 1.0000e+00
       21 -1    0    0  501  503 -0.0000000000e+00 -0.0000000000e+00 -6.9471649007e+02 6.9471649007e+02 0.0000000000e+00 0.0000e+00 -1.0000e+00
        6  1    1    2  501    0 -1.2436211818e+02 -1.4811001060e+02 -6.4506638601e+02 6.9530004605e+02 1.7300000000e+02 0.0000e+00 -1.0000e+00
       -6  1    1    2    0  502 +1.2436211818e+02 +1.4811001060e+02 +6.6159112563e+02 7.1065767370e+02 1.7300000000e+02 0.0000e+00 1.0000e+00
<mgrwt>
<rscale>  2 0.25948316E+03</rscale>
<asrwt>0</asrwt>
<pdfrwt beam="1">  1       21 0.10942173E+00 0.25948316E+03</pdfrwt>
<pdfrwt beam="2">  1       21 0.10687946E+00 0.25948316E+03</pdfrwt>
<totfact> 0.43351901E+02</totfact>
</mgrwt>
<rwgt>
<wgt id='1'> +7.0758671e+02 </wgt>
<wgt id='2'> +5.7204078e+02 </wgt>
<wgt id='3'> +5.0481800e+02 </wgt>
<wgt id='4'> +7.0758671e+02 </wgt>
<wgt id='5'> +3.2338030e+02 </wgt>
<wgt id='6'> +6.0970192e+02 </wgt>
<wgt id='7'> +4.9158662e+02 </wgt>
<wgt id='8'> +4.3519593e+02 </wgt>
<wgt id='9'> +6.0970192e+02 </wgt>
<wgt id='10'> +2.8184455e+02 </wgt>
<wgt id='11'> +5.2561477e+02 </wgt>
<wgt id='12'> +4.2584623e+02 </wgt>
<wgt id='13'> +3.7807924e+02 </wgt>
<wgt id='14'> +5.2561477e+02 </wgt>
<wgt id='15'> +2.4736760e+02 </wgt>
<wgt id='16'> +5.8586416e+02 </wgt>
<wgt id='17'> +4.8203754e+02 </wgt>
<wgt id='18'> +4.2762818e+02 </wgt>
<wgt id='19'> +5.8586416e+02 </wgt>
<wgt id='20'> +2.7882364e+02 </wgt>
<wgt id='21'> +4.1424180e+02 </wgt>
<wgt id='22'> +3.6865176e+02 </wgt>
<wgt id='23'> +5.0481800e+02 </wgt>
<wgt id='24'> +2.4301086e+02 </wgt>
<wgt id='25'> +4.3519593e+02 </wgt>
<wgt id='26'> +3.5884481e+02 </wgt>
<wgt id='27'> +3.2026857e+02 </wgt>
<wgt id='28'> +4.3519593e+02 </wgt>
<wgt id='29'> +2.1328429e+02 </wgt>
<wgt id='30'> +4.9628188e+02 </wgt>
<wgt id='31'> +4.1166646e+02 </wgt>
<wgt id='32'> +3.6687969e+02 </wgt>
<wgt id='33'> +4.9628188e+02 </wgt>
<wgt id='34'> +2.4287919e+02 </wgt>
<wgt id='35'> +4.2762818e+02 </wgt>
<wgt id='36'> +3.5376801e+02 </wgt>
<wgt id='37'> +3.1628141e+02 </wgt>
<wgt id='38'> +4.2762818e+02 </wgt>
<wgt id='39'> +2.1168320e+02 </wgt>
<wgt id='40'> +3.6865176e+02 </wgt>
<wgt id='41'> +3.0645824e+02 </wgt>
<wgt id='42'> +2.7477149e+02 </wgt>
<wgt id='43'> +3.6865176e+02 </wgt>
<wgt id='44'> +1.8578882e+02 </wgt>
<wgt id='45'> +5.0481800e+02 </wgt>
<wgt id='46'> +5.4173674e+02 </wgt>
<wgt id='47'> +5.3173602e+02 </wgt>
<wgt id='48'> +5.1955893e+02 </wgt>
<wgt id='49'> +4.8250911e+02 </wgt>
<wgt id='50'> +6.7376659e+02 </wgt>
<wgt id='51'> +4.8507053e+02 </wgt>
<wgt id='52'> +5.0170119e+02 </wgt>
<wgt id='53'> +4.8095944e+02 </wgt>
<wgt id='54'> +5.2420152e+02 </wgt>
<wgt id='55'> +5.0558430e+02 </wgt>
<wgt id='56'> +4.3770307e+02 </wgt>
<wgt id='57'> +5.2310099e+02 </wgt>
<wgt id='58'> +4.5956608e+02 </wgt>
<wgt id='59'> +5.6616648e+02 </wgt>
<wgt id='60'> +5.2874107e+02 </wgt>
<wgt id='61'> +3.8279112e+02 </wgt>
<wgt id='62'> +4.8881501e+02 </wgt>
<wgt id='63'> +5.1363477e+02 </wgt>
<wgt id='64'> +4.7990161e+02 </wgt>
<wgt id='65'> +5.2988984e+02 </wgt>
<wgt id='66'> +5.0405877e+02 </wgt>
<wgt id='67'> +5.0615400e+02 </wgt>
<wgt id='68'> +6.0358747e+02 </wgt>
<wgt id='69'> +5.4520868e+02 </wgt>
<wgt id='70'> +5.0316785e+02 </wgt>
<wgt id='71'> +4.9758540e+02 </wgt>
<wgt id='72'> +4.4536211e+02 </wgt>
<wgt id='73'> +4.6405995e+02 </wgt>
<wgt id='74'> +5.7481060e+02 </wgt>
<wgt id='75'> +5.2894970e+02 </wgt>
<wgt id='76'> +5.0301693e+02 </wgt>
<wgt id='77'> +5.0504128e+02 </wgt>
<wgt id='78'> +4.4036909e+02 </wgt>
<wgt id='79'> +5.2581272e+02 </wgt>
<wgt id='80'> +4.6786729e+02 </wgt>
<wgt id='81'> +4.9210512e+02 </wgt>
<wgt id='82'> +4.7096617e+02 </wgt>
<wgt id='83'> +5.1635223e+02 </wgt>
<wgt id='84'> +5.3907188e+02 </wgt>
<wgt id='85'> +4.9245022e+02 </wgt>
<wgt id='86'> +5.2772338e+02 </wgt>
<wgt id='87'> +5.1452277e+02 </wgt>
<wgt id='88'> +5.0714295e+02 </wgt>
<wgt id='89'> +4.9755484e+02 </wgt>
<wgt id='90'> +5.1350285e+02 </wgt>
<wgt id='91'> +4.8473506e+02 </wgt>
<wgt id='92'> +4.2549665e+02 </wgt>
<wgt id='93'> +5.1694172e+02 </wgt>
<wgt id='94'> +4.6297078e+02 </wgt>
<wgt id='95'> +5.0745369e+02 </wgt>
<wgt id='96'> +5.6148912e+02 </wgt>
<wgt id='97'> +4.7180524e+02 </wgt>
<wgt id='98'> +5.1586729e+02 </wgt>
<wgt id='99'> +4.4853884e+02 </wgt>
<wgt id='100'> +4.0471309e+02 </wgt>
<wgt id='101'> +6.2682610e+02 </wgt>
<wgt id='102'> +5.8460903e+02 </wgt>
<wgt id='103'> +5.4404175e+02 </wgt>
<wgt id='104'> +5.3241354e+02 </wgt>
<wgt id='105'> +5.0734145e+02 </wgt>
<wgt id='106'> +4.3293372e+02 </wgt>
<wgt id='107'> +4.4240757e+02 </wgt>
<wgt id='108'> +4.1695813e+02 </wgt>
<wgt id='109'> +4.6304567e+02 </wgt>
<wgt id='110'> +4.8129312e+02 </wgt>
<wgt id='111'> +4.8078379e+02 </wgt>
<wgt id='112'> +4.7064336e+02 </wgt>
<wgt id='113'> +4.6639192e+02 </wgt>
<wgt id='114'> +4.7065525e+02 </wgt>
<wgt id='115'> +4.3590030e+02 </wgt>
<wgt id='116'> +5.7184356e+02 </wgt>
<wgt id='117'> +4.8151835e+02 </wgt>
<wgt id='118'> +5.6167445e+02 </wgt>
<wgt id='119'> +5.0105173e+02 </wgt>
<wgt id='120'> +4.7845383e+02 </wgt>
<wgt id='121'> +4.9021973e+02 </wgt>
<wgt id='122'> +4.9473642e+02 </wgt>
<wgt id='123'> +5.0907648e+02 </wgt>
<wgt id='124'> +6.1192300e+02 </wgt>
<wgt id='125'> +6.3008369e+02 </wgt>
<wgt id='126'> +5.2409676e+02 </wgt>
<wgt id='127'> +5.1843605e+02 </wgt>
<wgt id='128'> +4.4212222e+02 </wgt>
<wgt id='129'> +5.6467554e+02 </wgt>
<wgt id='130'> +4.9903152e+02 </wgt>
<wgt id='131'> +5.0349779e+02 </wgt>
<wgt id='132'> +5.7509480e+02 </wgt>
<wgt id='133'> +5.5881640e+02 </wgt>
<wgt id='134'> +5.1142840e+02 </wgt>
<wgt id='135'> +5.0124924e+02 </wgt>
<wgt id='136'> +5.8072038e+02 </wgt>
<wgt id='137'> +5.0525558e+02 </wgt>
<wgt id='138'> +5.1724199e+02 </wgt>
<wgt id='139'> +5.3403985e+02 </wgt>
<wgt id='140'> +4.9415636e+02 </wgt>
<wgt id='141'> +5.4052304e+02 </wgt>
<wgt id='142'> +4.1179884e+02 </wgt>
<wgt id='143'> +5.3358852e+02 </wgt>
<wgt id='144'> +4.6471262e+02 </wgt>
<wgt id='145'> +4.8888509e+02 </wgt>
</rwgt>
</event>
<event>
 4      1 +5.0481800e+02 2.00919000e+02 7.54677100e-03 1.14896600e-01
       21 -1    0    0  501  502 +0.0000000000e+00 +0.0000000000e+00 +1.4017868683e+02 1.4017868683e+02 0.0000000000e+00 0.0000e+00 1.0000e+00
       21 -1    0    0  502  503 -0.0000000000e+00 -0.0000000000e+00 -2.9315497541e+02 2.9315497541e+02 0.0000000000e+00 0.0000e+00 1.0000e+00
        6  1    1    2  501    0 +4.8270181102e+01 -9.0052333638e+01 -4.7696577437e+01 2.0650277644e+02 1.7300000000e+02 0.0000e+00 1.0000e+00
       -6  1    1    2    0  503 -4.8270181102e+01 +9.0052333638e+01 -1.0527971114e+02 2.2683088580e+02 1.7300000000e+02 0.0000e+00 1.0000e+00
<mgrwt>
<rscale>  2 0.20091897E+03</rscale>
<asrwt>0</asrwt>
<pdfrwt beam="1">  1       21 0.21565952E-01 0.20091897E+03</pdfrwt>
<pdfrwt beam="2">  1       21 0.45100765E-01 0.20091897E+03</pdfrwt>
<totfact> 0.94212019E+04</totfact>
</mgrwt>
<rwgt>
<wgt id='1'> +6.4419292e+02 </wgt>
<wgt id='2'> +5.3190339e+02 </wgt>
<wgt id='3'> +5.0481800e+02 </wgt>
<wgt id='4'> +6.4419292e+02 </wgt>
<wgt id='5'> +5.0328674e+02 </wgt>
<wgt id='6'> +6.1813730e+02 </wgt>
<wgt id='7'> +5.0234294e+02 </wgt>
<wgt id='8'> +4.7601006e+02 </wgt>
<wgt id='9'> +6.1813730e+02 </wgt>
<wgt id='10'> +4.7455106e+02 </wgt>
<wgt id='11'> +5.8286269e+02 </wgt>
<wgt id='12'> +4.7335853e+02 </wgt>
<wgt id='13'> +4.4849512e+02 </wgt>
<wgt id='14'> +5.8286268e+02 </wgt>
<wgt id='15'> +4.4711808e+02 </wgt>
<wgt id='16'> +5.2609700e+02 </wgt>
<wgt id='17'> +4.4627813e+02 </wgt>
<wgt id='18'> +4.2545975e+02 </wgt>
<wgt id='19'> +5.2609700e+02 </wgt>
<wgt id='20'> +4.2425413e+02 </wgt>
<wgt id='21'> +4.2147629e+02 </wgt>
<wgt id='22'> +4.0118047e+02 </wgt>
<wgt id='23'> +5.0481800e+02 </wgt>
<wgt id='24'> +4.0003091e+02 </wgt>
<wgt id='25'> +4.7601006e+02 </wgt>
<wgt id='26'> +3.9715776e+02 </wgt>
<wgt id='27'> +3.7799092e+02 </wgt>
<wgt id='28'> +4.7601006e+02 </wgt>
<wgt id='29'> +3.7690581e+02 </wgt>
<wgt id='30'> +4.4339366e+02 </wgt>
<wgt id='31'> +3.8011827e+02 </wgt>
<wgt id='32'> +3.6339356e+02 </wgt>
<wgt id='33'> +4.4339366e+02 </wgt>
<wgt id='34'> +3.6242204e+02 </wgt>
<wgt id='35'> +4.2545975e+02 </wgt>
<wgt id='36'> +3.5899325e+02 </wgt>
<wgt id='37'> +3.4265615e+02 </wgt>
<wgt id='38'> +4.2545975e+02 </wgt>
<wgt id='39'> +3.4172918e+02 </wgt>
<wgt id='40'> +4.0118047e+02 </wgt>
<wgt id='41'> +3.3827989e+02 </wgt>
<wgt id='42'> +3.2284950e+02 </wgt>
<wgt id='43'> +4.0118047e+02 </wgt>
<wgt id='44'> +3.2197440e+02 </wgt>
<wgt id='45'> +5.0481800e+02 </wgt>
<wgt id='46'> +5.0320028e+02 </wgt>
<wgt id='47'> +5.2138538e+02 </wgt>
<wgt id='48'> +5.0512155e+02 </wgt>
<wgt id='49'> +5.0384667e+02 </wgt>
<wgt id='50'> +5.8283785e+02 </wgt>
<wgt id='51'> +4.9516709e+02 </wgt>
<wgt id='52'> +5.0158089e+02 </wgt>
<wgt id='53'> +5.1196817e+02 </wgt>
<wgt id='54'> +5.0768340e+02 </wgt>
<wgt id='55'> +4.5268991e+02 </wgt>
<wgt id='56'> +4.7210008e+02 </wgt>
<wgt id='57'> +4.9177900e+02 </wgt>
<wgt id='58'> +5.0979158e+02 </wgt>
<wgt id='59'> +4.9591188e+02 </wgt>
<wgt id='60'> +4.8303934e+02 </wgt>
<wgt id='61'> +4.9509919e+02 </wgt>
<wgt id='62'> +4.9790639e+02 </wgt>
<wgt id='63'> +5.0527431e+02 </wgt>
<wgt id='64'> +5.0179101e+02 </wgt>
<wgt id='65'> +5.9383956e+02 </wgt>
<wgt id='66'> +4.9268291e+02 </wgt>
<wgt id='67'> +5.0934443e+02 </wgt>
<wgt id='68'> +5.3824035e+02 </wgt>
<wgt id='69'> +4.9033791e+02 </wgt>
<wgt id='70'> +4.9698260e+02 </wgt>
<wgt id='71'> +5.1438241e+02 </wgt>
<wgt id='72'> +4.9434125e+02 </wgt>
<wgt id='73'> +4.9910063e+02 </wgt>
<wgt id='74'> +5.1772226e+02 </wgt>
<wgt id='75'> +5.1529492e+02 </wgt>
<wgt id='76'> +4.9093509e+02 </wgt>
<wgt id='77'> +4.8554604e+02 </wgt>
<wgt id='78'> +5.0697829e+02 </wgt>
<wgt id='79'> +4.8352655e+02 </wgt>
<wgt id='80'> +5.0126783e+02 </wgt>
<wgt id='81'> +4.9644135e+02 </wgt>
<wgt id='82'> +5.1913310e+02 </wgt>
<wgt id='83'> +5.1401781e+02 </wgt>
<wgt id='84'> +5.5256441e+02 </wgt>
<wgt id='85'> +5.3061067e+02 </wgt>
<wgt id='86'> +5.0042756e+02 </wgt>
<wgt id='87'> +5.0417285e+02 </wgt>
<wgt id='88'> +5.1275344e+02 </wgt>
<wgt id='89'> +5.1562379e+02 </wgt>
<wgt id='90'> +5.0982161e+02 </wgt>
<wgt id='91'> +5.3709046e+02 </wgt>
<wgt id='92'> +4.6857527e+02 </wgt>
<wgt id='93'> +4.9525617e+02 </wgt>
<wgt id='94'> +5.0349499e+02 </wgt>
<wgt id='95'> +4.8551542e+02 </wgt>
<wgt id='96'> +5.4228730e+02 </wgt>
<wgt id='97'> +5.1355269e+02 </wgt>
<wgt id='98'> +4.8160289e+02 </wgt>
<wgt id='99'> +4.9103076e+02 </wgt>
<wgt id='100'> +5.0396153e+02 </wgt>
<wgt id='101'> +5.2626673e+02 </wgt>
<wgt id='102'> +4.8747595e+02 </wgt>
<wgt id='103'> +5.4590718e+02 </wgt>
<wgt id='104'> +5.0295979e+02 </wgt>
<wgt id='105'> +5.2584387e+02 </wgt>
<wgt id='106'> +4.6806972e+02 </wgt>
<wgt id='107'> +5.0173429e+02 </wgt>
<wgt id='108'> +4.5611129e+02 </wgt>
<wgt id='109'> +4.7658028e+02 </wgt>
<wgt id='110'> +5.0637159e+02 </wgt>
<wgt id='111'> +4.9295083e+02 </wgt>
<wgt id='112'> +4.8375747e+02 </wgt>
<wgt id='113'> +4.6560268e+02 </wgt>
<wgt id='114'> +5.0660901e+02 </wgt>
<wgt id='115'> +5.0867241e+02 </wgt>
<wgt id='116'> +5.0163840e+02 </wgt>
<wgt id='117'> +5.1244602e+02 </wgt>
<wgt id='118'> +5.1485548e+02 </wgt>
<wgt id='119'> +4.8654433e+02 </wgt>
<wgt id='120'> +5.0457573e+02 </wgt>
<wgt id='121'> +4.9184467e+02 </wgt>
<wgt id='122'> +4.9876758e+02 </wgt>
<wgt id='123'> +5.1042161e+02 </wgt>
<wgt id='124'> +5.3534206e+02 </wgt>
<wgt id='125'> +5.3692504e+02 </wgt>
<wgt id='126'> +5.2268995e+02 </wgt>
<wgt id='127'> +5.1850157e+02 </wgt>
<wgt id='128'> +4.7082483e+02 </wgt>
<wgt id='129'> +5.6956684e+02 </wgt>
<wgt id='130'> +5.0797930e+02 </wgt>
<wgt id='131'> +5.4022400e+02 </wgt>
<wgt id='132'> +4.9784410e+02 </wgt>
<wgt id='133'> +4.9945488e+02 </wgt>
<wgt id='134'> +4.7504915e+02 </wgt>
<wgt id='135'> +5.1754810e+02 </wgt>
<wgt id='136'> +4.8307110e+02 </wgt>
<wgt id='137'> +4.7503171e+02 </wgt>
<wgt id='138'> +4.5734330e+02 </wgt>
<wgt id='139'> +5.1330406e+02 </wgt>
<wgt id='140'> +5.3723720e+02 </wgt>
<wgt id='141'> +5.0345811e+02 </wgt>
<wgt id='142'> +5.1052245e+02 </wgt>
<wgt id='143'> +4.9960073e+02 </wgt>
<wgt id='144'> +5.0589986e+02 </wgt>
<wgt id='145'> +5.0590154e+02 </wgt>
</rwgt>
</event>
<event>
 4      1 +5.0481800e+02 1.93318500e+02 7.54677100e-03 1.15550200e-01
       21 -1    0    0  501  502 +0.0000000000e+00 +0.0000000000e+00 +6.2935512810e+01 6.2935512810e+01 0.0000000000e+00 0.0000e+00 1.0000e+00
       21 -1    0    0  502  503 -0.0000000000e+00 -0.0000000000e+00 -8.8296786130e+02 8.8296786130e+02 0.0000000000e+00 0.0000e+00 1.0000e+00
        6  1    1    2  501    0 -6.7037737832e+00 -8.6012217047e+01 -1.3936607478e+02 2.3831690008e+02 1.7300000000e+02 0.0000e+00 1.0000e+00
       -6  1    1    2    0  503 +6.7037737832e+00 +8.6012217047e+01 -6.8066627371e+02 7.0758647403e+02 1.7300000000e+02 0.0000e+00 1.0000e+00
<mgrwt>
<rscale>  2 0.19331850E+03</rscale>
<asrwt>0</asrwt>
<pdfrwt beam="1">  1       21 0.96823861E-02 0.19331850E+03</pdfrwt>
<pdfrwt beam="2">  1       21 0.13584122E+00 0.19331850E+03</pdfrwt>
<totfact> 0.33204200E+04</totfact>
</mgrwt>
<rwgt>
<wgt id='1'> +6.6248908e+02 </wgt>
<wgt id='2'> +6.3535916e+02 </wgt>
<wgt id='3'> +5.0481800e+02 </wgt>
<wgt id='4'> +6.6248908e+02 </wgt>
<wgt id='5'> +4.6849158e+02 </wgt>
<wgt id='6'> +6.1936830e+02 </wgt>
<wgt id='7'> +5.9224712e+02 </wgt>
<wgt id='8'> +4.6437441e+02 </wgt>
<wgt id='9'> +6.1936830e+02 </wgt>
<wgt id='10'> +4.3102891e+02 </wgt>
<wgt id='11'> +5.6974750e+02 </wgt>
<wgt id='12'> +5.4477248e+02 </wgt>
<wgt id='13'> +4.2756076e+02 </wgt>
<wgt id='14'> +5.6974750e+02 </wgt>
<wgt id='15'> +3.9702327e+02 </wgt>
<wgt id='16'> +5.3996372e+02 </wgt>
<wgt id='17'> +5.2077351e+02 </wgt>
<wgt id='18'> +4.2504796e+02 </wgt>
<wgt id='19'> +5.3996372e+02 </wgt>
<wgt id='20'> +3.9609339e+02 </wgt>
<wgt id='21'> +4.8543664e+02 </wgt>
<wgt id='22'> +3.9099516e+02 </wgt>
<wgt id='23'> +5.0481800e+02 </wgt>
<wgt id='24'> +3.6441999e+02 </wgt>
<wgt id='25'> +4.6437441e+02 </wgt>
<wgt id='26'> +4.4652395e+02 </wgt>
<wgt id='27'> +3.5999871e+02 </wgt>
<wgt id='28'> +4.6437441e+02 </wgt>
<wgt id='29'> +3.3566941e+02 </wgt>
<wgt id='30'> +4.5464004e+02 </wgt>
<wgt id='31'> +4.3949181e+02 </wgt>
<wgt id='32'> +3.6278892e+02 </wgt>
<wgt id='33'> +4.5464004e+02 </wgt>
<wgt id='34'> +3.3926475e+02 </wgt>
<wgt id='35'> +4.2504796e+02 </wgt>
<wgt id='36'> +4.0967027e+02 </wgt>
<wgt id='37'> +3.3372402e+02 </wgt>
<wgt id='38'> +4.2504796e+02 </wgt>
<wgt id='39'> +3.1213563e+02 </wgt>
<wgt id='40'> +3.9099516e+02 </wgt>
<wgt id='41'> +3.7683103e+02 </wgt>
<wgt id='42'> +3.0726778e+02 </wgt>
<wgt id='43'> +3.9099516e+02 </wgt>
<wgt id='44'> +2.8750997e+02 </wgt>
<wgt id='45'> +5.0481800e+02 </wgt>
<wgt id='46'> +5.1818149e+02 </wgt>
<wgt id='47'> +5.1758650e+02 </wgt>
<wgt id='48'> +5.0626262e+02 </wgt>
<wgt id='49'> +4.8598191e+02 </wgt>
<wgt id='50'> +5.9733584e+02 </wgt>
<wgt id='51'> +4.8618321e+02 </wgt>
<wgt id='52'> +4.9655118e+02 </wgt>
<wgt id='53'> +4.9781509e+02 </wgt>
<wgt id='54'> +5.2201262e+02 </wgt>
<wgt id='55'> +5.0933623e+02 </wgt>
<wgt id='56'> +4.6671773e+02 </wgt>
<wgt id='57'> +5.2030371e+02 </wgt>
<wgt id='58'> +4.8162334e+02 </wgt>
<wgt id='59'> +5.3677500e+02 </wgt>
<wgt id='60'> +5.0821824e+02 </wgt>
<wgt id='61'> +4.4169423e+02 </wgt>
<wgt id='62'> +4.8590533e+02 </wgt>
<wgt id='63'> +5.1495080e+02 </wgt>
<wgt id='64'> +4.9957399e+02 </wgt>
<wgt id='65'> +5.2499191e+02 </wgt>
<wgt id='66'> +5.0028151e+02 </wgt>
<wgt id='67'> +5.0694232e+02 </wgt>
<wgt id='68'> +5.7175168e+02 </wgt>
<wgt id='69'> +5.1521284e+02 </wgt>
<wgt id='70'> +5.0939942e+02 </wgt>
<wgt id='71'> +4.9774474e+02 </wgt>
<wgt id='72'> +4.8230003e+02 </wgt>
<wgt id='73'> +4.7729617e+02 </wgt>
<wgt id='74'> +5.4664628e+02 </wgt>
<wgt id='75'> +5.2282477e+02 </wgt>
<wgt id='76'> +5.0763858e+02 </wgt>
<wgt id='77'> +4.9225895e+02 </wgt>
<wgt id='78'> +4.6525345e+02 </wgt>
<wgt id='79'> +5.1247000e+02 </wgt>
<wgt id='80'> +4.7736385e+02 </wgt>
<wgt id='81'> +5.0265343e+02 </wgt>
<wgt id='82'> +4.8875051e+02 </wgt>
<wgt id='83'> +5.0416250e+02 </wgt>
<wgt id='84'> +5.2393469e+02 </wgt>
<wgt id='85'> +4.9332815e+02 </wgt>
<wgt id='86'> +5.1314090e+02 </wgt>
<wgt id='87'> +5.0626016e+02 </wgt>
<wgt id='88'> +4.9927607e+02 </wgt>
<wgt id='89'> +4.8769485e+02 </wgt>
<wgt id='90'> +5.0372058e+02 </wgt>
<wgt id='91'> +4.9065576e+02 </wgt>
<wgt id='92'> +4.6689214e+02 </wgt>
<wgt id='93'> +5.0491021e+02 </wgt>
<wgt id='94'> +4.8065354e+02 </wgt>
<wgt id='95'> +5.1417431e+02 </wgt>
<wgt id='96'> +5.3235091e+02 </wgt>
<wgt id='97'> +4.8499099e+02 </wgt>
<wgt id='98'> +5.0890295e+02 </wgt>
<wgt id='99'> +4.6088645e+02 </wgt>
<wgt id='100'> +4.4117070e+02 </wgt>
<wgt id='101'> +5.6982673e+02 </wgt>
<wgt id='102'> +5.3796017e+02 </wgt>
<wgt id='103'> +5.2362333e+02 </wgt>
<wgt id='104'> +5.1826034e+02 </wgt>
<wgt id='105'> +5.2049048e+02 </wgt>
<wgt id='106'> +4.7110701e+02 </wgt>
<wgt id='107'> +4.8021518e+02 </wgt>
<wgt id='108'> +4.5510251e+02 </wgt>
<wgt id='109'> +4.8585311e+02 </wgt>
<wgt id='110'> +4.8999044e+02 </wgt>
<wgt id='111'> +4.9290429e+02 </wgt>
<wgt id='112'> +4.9461788e+02 </wgt>
<wgt id='113'> +4.8688891e+02 </wgt>
<wgt id='114'> +5.0507602e+02 </wgt>
<wgt id='115'> +4.7013364e+02 </wgt>
<wgt id='116'> +5.3315849e+02 </wgt>
<wgt id='117'> +4.9489530e+02 </wgt>
<wgt id='118'> +5.2819927e+02 </wgt>
<wgt id='119'> +5.1332913e+02 </wgt>
<wgt id='120'> +4.9874264e+02 </wgt>
<wgt id='121'> +5.0093497e+02 </wgt>
<wgt id='122'> +4.9893605e+02 </wgt>
<wgt id='123'> +4.9988394e+02 </wgt>
<wgt id='124'> +5.6426022e+02 </wgt>
<wgt id='125'> +5.8499566e+02 </wgt>
<wgt id='126'> +5.1038322e+02 </wgt>
<wgt id='127'> +5.0671224e+02 </wgt>
<wgt id='128'> +4.6547317e+02 </wgt>
<wgt id='129'> +5.4859903e+02 </wgt>
<wgt id='130'> +4.9030919e+02 </wgt>
<wgt id='131'> +5.0430856e+02 </wgt>
<wgt id='132'> +5.4382724e+02 </wgt>
<wgt id='133'> +5.3078568e+02 </wgt>
<wgt id='134'> +5.0603457e+02 </wgt>
<wgt id='135'> +5.0150956e+02 </wgt>
<wgt id='136'> +5.5207224e+02 </wgt>
<wgt id='137'> +4.9593463e+02 </wgt>
<wgt id='138'> +4.8783962e+02 </wgt>
<wgt id='139'> +5.2046666e+02 </wgt>
<wgt id='140'> +5.0774440e+02 </wgt>
<wgt id='141'> +5.3011713e+02 </wgt>
<wgt id='142'> +4.3701857e+02 </wgt>
<wgt id='143'> +5.1898065e+02 </wgt>
<wgt id='144'> +4.8300209e+02 </wgt>
<wgt id='145'> +4.8822636e+02 </wgt>
</rwgt>
</event>
<event>
 4      1 +5.0481800e+02 2.24491900e+02 7.54677100e-03 1.13057800e-01
       21 -1    0    0  503  502 +0.0000000000e+00 +0.0000000000e+00 +2.1137420882e+03 2.1137420882e+03 0.0000000000e+00 0.0000e+00 1.0000e+00
       21 -1    0    0  501  503 -0.0000000000e+00 -0.0000000000e+00 -2.8941055218e+01 2.8941055218e+01 0.0000000000e+00 0.0000e+00 -1.0000e+00
        6  1    1    2  501    0 -1.1660205036e+02 +8.2894981439e+01 +5.9272424175e+02 6.3381278218e+02 1.7300000000e+02 0.0000e+00 -1.0000e+00
       -6  1    1    2    0  502 +1.1660205036e+02 -8.2894981439e+01 +1.4920767912e+03 1.5088703612e+03 1.7300000000e+02 0.0000e+00 1.0000e+00
<mgrwt>
<rscale>  2 0.22449191E+03</rscale>
<asrwt>0</asrwt>
<pdfrwt beam="1">  1       21 0.32519097E+00 0.22449191E+03</pdfrwt>
<pdfrwt beam="2">  1       21 0.44524717E-02 0.22449191E+03</pdfrwt>
<totfact> 0.77184505E+03</totfact>
</mgrwt>
<rwgt>
<wgt id='1'> +7.1449338e+02 </wgt>
<wgt id='2'> +6.2345471e+02 </wgt>
<wgt id='3'> +5.0481800e+02 </wgt>
<wgt id='4'> +7.1449338e+02 </wgt>
<wgt id='5'> +4.8189566e+02 </wgt>
<wgt id='6'> +6.1431778e+02 </wgt>
<wgt id='7'> +5.3414951e+02 </wgt>
<wgt id='8'> +4.3313165e+02 </wgt>
<wgt id='9'> +6.1431779e+02 </wgt>
<wgt id='10'> +4.1402905e+02 </wgt>
<wgt id='11'> +5.2708198e+02 </wgt>
<wgt id='12'> +4.5997240e+02 </wgt>
<wgt id='13'> +3.7510634e+02 </wgt>
<wgt id='14'> +5.2708199e+02 </wgt>
<wgt id='15'> +3.5901851e+02 </wgt>
<wgt id='16'> +5.8713768e+02 </wgt>
<wgt id='17'> +5.1940601e+02 </wgt>
<wgt id='18'> +4.2639291e+02 </wgt>
<wgt id='19'> +5.8713768e+02 </wgt>
<wgt id='20'> +4.0782168e+02 </wgt>
<wgt id='21'> +4.4500501e+02 </wgt>
<wgt id='22'> +3.6584326e+02 </wgt>
<wgt id='23'> +5.0481800e+02 </wgt>
<wgt id='24'> +3.5038710e+02 </wgt>
<wgt id='25'> +4.3313164e+02 </wgt>
<wgt id='26'> +3.8320735e+02 </wgt>
<wgt id='27'> +3.1683237e+02 </wgt>
<wgt id='28'> +4.3313165e+02 </wgt>
<wgt id='29'> +3.0383243e+02 </wgt>
<wgt id='30'> +4.9592396e+02 </wgt>
<wgt id='31'> +4.4102858e+02 </wgt>
<wgt id='32'> +3.6490715e+02 </wgt>
<wgt id='33'> +4.9592396e+02 </wgt>
<wgt id='34'> +3.4960069e+02 </wgt>
<wgt id='35'> +4.2639290e+02 </wgt>
<wgt id='36'> +3.7785455e+02 </wgt>
<wgt id='37'> +3.1308875e+02 </wgt>
<wgt id='38'> +4.2639291e+02 </wgt>
<wgt id='39'> +3.0036553e+02 </wgt>
<wgt id='40'> +3.6584325e+02 </wgt>
<wgt id='41'> +3.2538206e+02 </wgt>
<wgt id='42'> +2.7114522e+02 </wgt>
<wgt id='43'> +3.6584326e+02 </wgt>
<wgt id='44'> +2.6045704e+02 </wgt>
<wgt id='45'> +5.0481800e+02 </wgt>
<wgt id='46'> +5.0930632e+02 </wgt>
<wgt id='47'> +6.0951441e+02 </wgt>
<wgt id='48'> +5.0600222e+02 </wgt>
<wgt id='49'> +4.3711006e+02 </wgt>
<wgt id='50'> +6.1087261e+02 </wgt>
<wgt id='51'> +4.8523819e+02 </wgt>
<wgt id='52'> +4.0096437e+02 </wgt>
<wgt id='53'> +5.7177800e+02 </wgt>
<wgt id='54'> +5.3497484e+02 </wgt>
<wgt id='55'> +6.4203872e+02 </wgt>
<wgt id='56'> +4.9151531e+02 </wgt>
<wgt id='57'> +5.5760324e+02 </wgt>
<wgt id='58'> +4.1521153e+02 </wgt>
<wgt id='59'> +5.4914544e+02 </wgt>
<wgt id='60'> +4.8355549e+02 </wgt>
<wgt id='61'> +3.7935538e+02 </wgt>
<wgt id='62'> +4.2660471e+02 </wgt>
<wgt id='63'> +5.3849211e+02 </wgt>
<wgt id='64'> +5.0802794e+02 </wgt>
<wgt id='65'> +3.7312050e+02 </wgt>
<wgt id='66'> +5.2224994e+02 </wgt>
<wgt id='67'> +4.8831302e+02 </wgt>
<wgt id='68'> +7.7619586e+02 </wgt>
<wgt id='69'> +6.1072894e+02 </wgt>
<wgt id='70'> +6.9370230e+02 </wgt>
<wgt id='71'> +4.2397003e+02 </wgt>
<wgt id='72'> +4.0199720e+02 </wgt>
<wgt id='73'> +4.2764676e+02 </wgt>
<wgt id='74'> +6.9205439e+02 </wgt>
<wgt id='75'> +6.5555180e+02 </wgt>
<wgt id='76'> +5.0874728e+02 </wgt>
<wgt id='77'> +4.2489634e+02 </wgt>
<wgt id='78'> +4.0308467e+02 </wgt>
<wgt id='79'> +5.8809998e+02 </wgt>
<wgt id='80'> +3.6941033e+02 </wgt>
<wgt id='81'> +5.6584653e+02 </wgt>
<wgt id='82'> +4.9260809e+02 </wgt>
<wgt id='83'> +5.0479749e+02 </wgt>
<wgt id='84'> +4.2359508e+02 </wgt>
<wgt id='85'> +4.1182382e+02 </wgt>
<wgt id='86'> +5.6482326e+02 </wgt>
<wgt id='87'> +4.6573699e+02 </wgt>
<wgt id='88'> +5.4941670e+02 </wgt>
<wgt id='89'> +2.9829033e+02 </wgt>
<wgt id='90'> +3.9675146e+02 </wgt>
<wgt id='91'> +3.6275428e+02 </wgt>
<wgt id='92'> +4.7341704e+02 </wgt>
<wgt id='93'> +5.4086784e+02 </wgt>
<wgt id='94'> +4.2542525e+02 </wgt>
<wgt id='95'> +5.2190059e+02 </wgt>
<wgt id='96'> +4.9360240e+02 </wgt>
<wgt id='97'> +4.1462936e+02 </wgt>
<wgt id='98'> +6.4056562e+02 </wgt>
<wgt id='99'> +3.6927620e+02 </wgt>
<wgt id='100'> +3.0975562e+02 </wgt>
<wgt id='101'> +6.2436540e+02 </wgt>
<wgt id='102'> +6.1111183e+02 </wgt>
<wgt id='103'> +4.1502538e+02 </wgt>
<wgt id='104'> +5.7543977e+02 </wgt>
<wgt id='105'> +5.1821626e+02 </wgt>
<wgt id='106'> +5.2387786e+02 </wgt>
<wgt id='107'> +5.3471307e+02 </wgt>
<wgt id='108'> +4.6206750e+02 </wgt>
<wgt id='109'> +5.1275871e+02 </wgt>
<wgt id='110'> +3.8385739e+02 </wgt>
<wgt id='111'> +4.6883805e+02 </wgt>
<wgt id='112'> +5.2149585e+02 </wgt>
<wgt id='113'> +6.4196957e+02 </wgt>
<wgt id='114'> +4.5215931e+02 </wgt>
<wgt id='115'> +4.8849027e+02 </wgt>
<wgt id='116'> +5.9239418e+02 </wgt>
<wgt id='117'> +5.2693071e+02 </wgt>
<wgt id='118'> +4.9738482e+02 </wgt>
<wgt id='119'> +5.4505995e+02 </wgt>
<wgt id='120'> +4.8677161e+02 </wgt>
<wgt id='121'> +4.5179987e+02 </wgt>
<wgt id='122'> +4.6702928e+02 </wgt>
<wgt id='123'> +4.3718792e+02 </wgt>
<wgt id='124'> +5.6577015e+02 </wgt>
<wgt id='125'> +7.6426893e+02 </wgt>
<wgt id='126'> +4.7236896e+02 </wgt>
<wgt id='127'> +4.4787552e+02 </wgt>
<wgt id='128'> +5.0743732e+02 </wgt>
<wgt id='129'> +4.6547661e+02 </wgt>
<wgt id='130'> +4.7512053e+02 </wgt>
<wgt id='131'> +4.1888201e+02 </wgt>
<wgt id='132'> +5.3253205e+02 </wgt>
<wgt id='133'> +5.6512118e+02 </wgt>
<wgt id='134'> +5.8430981e+02 </wgt>
<wgt id='135'> +4.6888316e+02 </wgt>
<wgt id='136'> +6.3559369e+02 </wgt>
<wgt id='137'> +6.1828598e+02 </wgt>
<wgt id='138'> +5.8160741e+02 </wgt>
<wgt id='139'> +5.3320646e+02 </wgt>
<wgt id='140'> +4.7836740e+02 </wgt>
<wgt id='141'> +6.9831075e+02 </wgt>
<wgt id='142'> +2.1164203e+02 </wgt>
<wgt id='143'> +5.1327588e+02 </wgt>
<wgt id='144'> +4.2389306e+02 </wgt>
<wgt id='145'> +4.4955233e+02 </wgt>
</rwgt>
</event>
<event>
 4      1 +5.0481800e+02 2.12692800e+02 7.54677100e-03 1.13945100e-01
       21 -1    0    0  503  502 +0.0000000000e+00 +0.0000000000e+00 +6.6017577159e+02 6.6017577159e+02 0.0000000000e+00 0.0000e+00 1.0000e+00
       21 -1    0    0  501  503 -0.0000000000e+00 -0.0000000000e+00 -7.8114584091e+01 7.8114584091e+01 0.0000000000e+00 0.0000e+00 1.0000e+00
        6  1    1    2  501    0 -9.4306171792e+01 -8.0097397128e+01 +1.6168809897e+02 2.6717276885e+02 1.7300000000e+02 0.0000e+00 1.0000e+00
       -6  1    1    2    0  502 +9.4306171792e+01 +8.0097397128e+01 +4.2037308852e+02 4.7111758683e+02 1.7300000000e+02 0.0000e+00 1.0000e+00
<mgrwt>
<rscale>  2 0.21269285E+03</rscale>
<asrwt>0</asrwt>
<pdfrwt beam="1">  1       21 0.10156550E+00 0.21269285E+03</pdfrwt>
<pdfrwt beam="2">  1       21 0.12017629E-01 0.21269285E+03</pdfrwt>
<totfact> 0.45827235E+04</totfact>
</mgrwt>
<rwgt>
<wgt id='1'> +6.5392178e+02 </wgt>
<wgt id='2'> +5.7728105e+02 </wgt>
<wgt id='3'> +5.0481800e+02 </wgt>
<wgt id='4'> +6.5392178e+02 </wgt>
<wgt id='5'> +4.9302758e+02 </wgt>
<wgt id='6'> +6.1617401e+02 </wgt>
<wgt id='7'> +5.3867049e+02 </wgt>
<wgt id='8'> +4.6890595e+02 </wgt>
<wgt id='9'> +6.1617402e+02 </wgt>
<wgt id='10'> +4.5800337e+02 </wgt>
<wgt id='11'> +5.7234025e+02 </wgt>
<wgt id='12'> +5.0043586e+02 </wgt>
<wgt id='13'> +4.3574772e+02 </wgt>
<wgt id='14'> +5.7234025e+02 </wgt>
<wgt id='15'> +4.2564761e+02 </wgt>
<wgt id='16'> +5.3574392e+02 </wgt>
<wgt id='17'> +4.8115717e+02 </wgt>
<wgt id='18'> +4.2596144e+02 </wgt>
<wgt id='19'> +5.3574393e+02 </wgt>
<wgt id='20'> +4.1652546e+02 </wgt>
<wgt id='21'> +4.4897571e+02 </wgt>
<wgt id='22'> +3.9565913e+02 </wgt>
<wgt id='23'> +5.0481800e+02 </wgt>
<wgt id='24'> +3.8693589e+02 </wgt>
<wgt id='25'> +4.6890595e+02 </wgt>
<wgt id='26'> +4.1710759e+02 </wgt>
<wgt id='27'> +3.6768048e+02 </wgt>
<wgt id='28'> +4.6890595e+02 </wgt>
<wgt id='29'> +3.5960071e+02 </wgt>
<wgt id='30'> +4.5205649e+02 </wgt>
<wgt id='31'> +4.0862254e+02 </wgt>
<wgt id='32'> +3.6419328e+02 </wgt>
<wgt id='33'> +4.5205649e+02 </wgt>
<wgt id='34'> +3.5653400e+02 </wgt>
<wgt id='35'> +4.2596143e+02 </wgt>
<wgt id='36'> +3.8129244e+02 </wgt>
<wgt id='37'> +3.3828507e+02 </wgt>
<wgt id='38'> +4.2596144e+02 </wgt>
<wgt id='39'> +3.3120616e+02 </wgt>
<wgt id='40'> +3.9565913e+02 </wgt>
<wgt id='41'> +3.5422845e+02 </wgt>
<wgt id='42'> +3.1436357e+02 </wgt>
<wgt id='43'> +3.9565913e+02 </wgt>
<wgt id='44'> +3.0780802e+02 </wgt>
<wgt id='45'> +5.0481800e+02 </wgt>
<wgt id='46'> +5.1467204e+02 </wgt>
<wgt id='47'> +5.1952320e+02 </wgt>
<wgt id='48'> +5.0725226e+02 </wgt>
<wgt id='49'> +4.9533676e+02 </wgt>
<wgt id='50'> +5.9627842e+02 </wgt>
<wgt id='51'> +4.9154206e+02 </wgt>
<wgt id='52'> +5.0236333e+02 </wgt>
<wgt id='53'> +4.9951400e+02 </wgt>
<wgt id='54'> +5.1402803e+02 </wgt>
<wgt id='55'> +4.8233252e+02 </wgt>
<wgt id='56'> +4.6396215e+02 </wgt>
<wgt id='57'> +5.0809202e+02 </wgt>
<wgt id='58'> +4.9355245e+02 </wgt>
<wgt id='59'> +5.2323502e+02 </wgt>
<wgt id='60'> +5.0284965e+02 </wgt>
<wgt id='61'> +4.4820707e+02 </wgt>
<wgt id='62'> +4.9364887e+02 </wgt>
<wgt id='63'> +5.0833929e+02 </wgt>
<wgt id='64'> +4.9680607e+02 </wgt>
<wgt id='65'> +5.5528733e+02 </wgt>
<wgt id='66'> +4.9684039e+02 </wgt>
<wgt id='67'> +5.0767386e+02 </wgt>
<wgt id='68'> +5.5645030e+02 </wgt>
<wgt id='69'> +5.0460488e+02 </wgt>
<wgt id='70'> +5.0072549e+02 </wgt>
<wgt id='71'> +5.0767034e+02 </wgt>
<wgt id='72'> +4.8636544e+02 </wgt>
<wgt id='73'> +4.8774159e+02 </wgt>
<wgt id='74'> +5.3421821e+02 </wgt>
<wgt id='75'> +5.1715773e+02 </wgt>
<wgt id='76'> +4.9983790e+02 </wgt>
<wgt id='77'> +4.9371460e+02 </wgt>
<wgt id='78'> +4.8178651e+02 </wgt>
<wgt id='79'> +5.0039295e+02 </wgt>
<wgt id='80'> +4.8963397e+02 </wgt>
<wgt id='81'> +4.9722395e+02 </wgt>
<wgt id='82'> +4.9764684e+02 </wgt>
<wgt id='83'> +5.0939753e+02 </wgt>
<wgt id='84'> +5.3824154e+02 </wgt>
<wgt id='85'> +5.1091468e+02 </wgt>
<wgt id='86'> +5.0779908e+02 </wgt>
<wgt id='87'> +5.0733563e+02 </wgt>
<wgt id='88'> +5.0614748e+02 </wgt>
<wgt id='89'> +5.0641974e+02 </wgt>
<wgt id='90'> +5.1172835e+02 </wgt>
<wgt id='91'> +5.1305962e+02 </wgt>
<wgt id='92'> +4.6432395e+02 </wgt>
<wgt id='93'> +5.0226591e+02 </wgt>
<wgt id='94'> +4.9018902e+02 </wgt>
<wgt id='95'> +5.0077547e+02 </wgt>
<wgt id='96'> +5.3788135e+02 </wgt>
<wgt id='97'> +4.9763982e+02 </wgt>
<wgt id='98'> +4.9642864e+02 </wgt>
<wgt id='99'> +4.7653953e+02 </wgt>
<wgt id='100'> +4.6843149e+02 </wgt>
<wgt id='101'> +5.5553326e+02 </wgt>
<wgt id='102'> +5.1948969e+02 </wgt>
<wgt id='103'> +5.3838910e+02 </wgt>
<wgt id='104'> +5.1042613e+02 </wgt>
<wgt id='105'> +5.2122402e+02 </wgt>
<wgt id='106'> +4.6462422e+02 </wgt>
<wgt id='107'> +4.8368086e+02 </wgt>
<wgt id='108'> +4.5012665e+02 </wgt>
<wgt id='109'> +4.7859553e+02 </wgt>
<wgt id='110'> +4.9881812e+02 </wgt>
<wgt id='111'> +4.9199781e+02 </wgt>
<wgt id='112'> +4.8271737e+02 </wgt>
<wgt id='113'> +4.7283344e+02 </wgt>
<wgt id='114'> +4.9810637e+02 </wgt>
<wgt id='115'> +4.8012241e+02 </wgt>
<wgt id='116'> +5.2185949e+02 </wgt>
<wgt id='117'> +4.9947054e+02 </wgt>
<wgt id='118'> +5.2690789e+02 </wgt>
<wgt id='119'> +4.9705690e+02 </wgt>
<wgt id='120'> +4.9485108e+02 </wgt>
<wgt id='121'> +4.9665332e+02 </wgt>
<wgt id='122'> +4.9914839e+02 </wgt>
<wgt id='123'> +5.0621378e+02 </wgt>
<wgt id='124'> +5.5594817e+02 </wgt>
<wgt id='125'> +5.6390131e+02 </wgt>
<wgt id='126'> +5.1779458e+02 </wgt>
<wgt id='127'> +5.1506030e+02 </wgt>
<wgt id='128'> +4.6215094e+02 </wgt>
<wgt id='129'> +5.6077643e+02 </wgt>
<wgt id='130'> +4.9974949e+02 </wgt>
<wgt id='131'> +5.2232930e+02 </wgt>
<wgt id='132'> +5.2925231e+02 </wgt>
<wgt id='133'> +5.1897161e+02 </wgt>
<wgt id='134'> +4.9309734e+02 </wgt>
<wgt id='135'> +5.0988841e+02 </wgt>
<wgt id='136'> +5.2360600e+02 </wgt>
<wgt id='137'> +4.8588314e+02 </wgt>
<wgt id='138'> +4.7577737e+02 </wgt>
<wgt id='139'> +5.1919010e+02 </wgt>
<wgt id='140'> +5.1830406e+02 </wgt>
<wgt id='141'> +5.1573462e+02 </wgt>
<wgt id='142'> +4.7302876e+02 </wgt>
<wgt id='143'> +5.1422933e+02 </wgt>
<wgt id='144'> +4.9347942e+02 </wgt>
<wgt id='145'> +4.9876964e+02 </wgt>
</rwgt>
</event>
<event>
 4      1 +5.0481800e+02 1.89010800e+02 7.54677100e-03 1.15935700e-01
       21 -1    0    0  503  502 +0.0000000000e+00 +0.0000000000e+00 +5.2244149713e+01 5.2244149713e+01 0.0000000000e+00 0.0000e+00 -1.0000e+00
       21 -1    0    0  501  503 -0.0000000000e+00 -0.0000000000e+00 -7.0654377710e+02 7.0654377710e+02 0.0000000000e+00 0.0000e+00 -1.0000e+00
        6  1    1    2  501    0 +4.6534454163e+01 +6.0254565178e+01 -2.5909522673e+02 3.2071078024e+02 1.7300000000e+02 0.0000e+00 -1.0000e+00
       -6  1    1    2    0  502 -4.6534454163e+01 -6.0254565178e+01 -3.9520440065e+02 4.3807714657e+02 1.7300000000e+02 0.0000e+00 -1.0000e+00
<mgrwt>
<rscale>  2 0.18901076E+03</rscale>
<asrwt>0</asrwt>
<pdfrwt beam="1">  1       21 0.80375614E-02 0.18901076E+03</pdfrwt>
<pdfrwt beam="2">  1       21 0.10869904E+00 0.18901076E+03</pdfrwt>
<totfact> 0.80136892E+04</totfact>
</mgrwt>
<rwgt>
<wgt id='1'> +6.5013321e+02 </wgt>
<wgt id='2'> +6.7180225e+02 </wgt>
<wgt id='3'> +5.0481800e+02 </wgt>
<wgt id='4'> +6.5013320e+02 </wgt>
<wgt id='5'> +5.0190421e+02 </wgt>
<wgt id='6'> +6.2003395e+02 </wgt>
<wgt id='7'> +6.4206744e+02 </wgt>
<wgt id='8'> +4.7259223e+02 </wgt>
<wgt id='9'> +6.2003394e+02 </wgt>
<wgt id='10'> +4.6979722e+02 </wgt>
<wgt id='11'> +5.8045321e+02 </wgt>
<wgt id='12'> +6.0170847e+02 </wgt>
<wgt id='13'> +4.4203974e+02 </wgt>
<wgt id='14'> +5.8045320e+02 </wgt>
<wgt id='15'> +4.3942391e+02 </wgt>
<wgt id='16'> +5.2932416e+02 </wgt>
<wgt id='17'> +5.4475483e+02 </wgt>
<wgt id='18'> +4.2477752e+02 </wgt>
<wgt id='19'> +5.2932415e+02 </wgt>
<wgt id='20'> +4.2252192e+02 </wgt>
<wgt id='21'> +5.2064330e+02 </wgt>
<wgt id='22'> +3.9766125e+02 </wgt>
<wgt id='23'> +5.0481800e+02 </wgt>
<wgt id='24'> +3.9549304e+02 </wgt>
<wgt id='25'> +4.7259223e+02 </wgt>
<wgt id='26'> +4.8791679e+02 </wgt>
<wgt id='27'> +3.7195295e+02 </wgt>
<wgt id='28'> +4.7259223e+02 </wgt>
<wgt id='29'> +3.6992364e+02 </wgt>
<wgt id='30'> +4.4539815e+02 </wgt>
<wgt id='31'> +4.5712826e+02 </wgt>
<wgt id='32'> +3.6240999e+02 </wgt>
<wgt id='33'> +4.4539814e+02 </wgt>
<wgt id='34'> +3.6059250e+02 </wgt>
<wgt id='35'> +4.2477752e+02 </wgt>
<wgt id='36'> +4.3689519e+02 </wgt>
<wgt id='37'> +3.3927504e+02 </wgt>
<wgt id='38'> +4.2477752e+02 </wgt>
<wgt id='39'> +3.3752527e+02 </wgt>
<wgt id='40'> +3.9766125e+02 </wgt>
<wgt id='41'> +4.0943291e+02 </wgt>
<wgt id='42'> +3.1734133e+02 </wgt>
<wgt id='43'> +3.9766125e+02 </wgt>
<wgt id='44'> +3.1570360e+02 </wgt>
<wgt id='45'> +5.0481800e+02 </wgt>
<wgt id='46'> +5.1489611e+02 </wgt>
<wgt id='47'> +5.1669547e+02 </wgt>
<wgt id='48'> +5.0628808e+02 </wgt>
<wgt id='49'> +4.9432726e+02 </wgt>
<wgt id='50'> +5.8917173e+02 </wgt>
<wgt id='51'> +4.9110358e+02 </wgt>
<wgt id='52'> +5.0235130e+02 </wgt>
<wgt id='53'> +4.9797098e+02 </wgt>
<wgt id='54'> +5.1523134e+02 </wgt>
<wgt id='55'> +4.9050072e+02 </wgt>
<wgt id='56'> +4.6626073e+02 </wgt>
<wgt id='57'> +5.1162197e+02 </wgt>
<wgt id='58'> +4.9321686e+02 </wgt>
<wgt id='59'> +5.2702228e+02 </wgt>
<wgt id='60'> +5.0704924e+02 </wgt>
<wgt id='61'> +4.4471662e+02 </wgt>
<wgt id='62'> +4.9267044e+02 </wgt>
<wgt id='63'> +5.0946743e+02 </wgt>
<wgt id='64'> +4.9832512e+02 </wgt>
<wgt id='65'> +5.4315812e+02 </wgt>
<wgt id='66'> +4.9735417e+02 </wgt>
<wgt id='67'> +5.0723964e+02 </wgt>
<wgt id='68'> +5.5696772e+02 </wgt>
<wgt id='69'> +5.0406215e+02 </wgt>
<wgt id='70'> +5.0240556e+02 </wgt>
<wgt id='71'> +5.0577631e+02 </wgt>
<wgt id='72'> +4.8936298e+02 </wgt>
<wgt id='73'> +4.8742841e+02 </wgt>
<wgt id='74'> +5.3497921e+02 </wgt>
<wgt id='75'> +5.1657501e+02 </wgt>
<wgt id='76'> +5.0227306e+02 </wgt>
<wgt id='77'> +4.9486377e+02 </wgt>
<wgt id='78'> +4.7912511e+02 </wgt>
<wgt id='79'> +5.0357652e+02 </wgt>
<wgt id='80'> +4.8812959e+02 </wgt>
<wgt id='81'> +4.9870602e+02 </wgt>
<wgt id='82'> +4.9478144e+02 </wgt>
<wgt id='83'> +5.0622427e+02 </wgt>
<wgt id='84'> +5.3181642e+02 </wgt>
<wgt id='85'> +5.0666068e+02 </wgt>
<wgt id='86'> +5.0777472e+02 </wgt>
<wgt id='87'> +5.0739085e+02 </wgt>
<wgt id='88'> +5.0277236e+02 </wgt>
<wgt id='89'> +5.0385632e+02 </wgt>
<wgt id='90'> +5.1134326e+02 </wgt>
<wgt id='91'> +5.0805845e+02 </wgt>
<wgt id='92'> +4.6841284e+02 </wgt>
<wgt id='93'> +5.0300816e+02 </wgt>
<wgt id='94'> +4.8933779e+02 </wgt>
<wgt id='95'> +5.0513468e+02 </wgt>
<wgt id='96'> +5.3304116e+02 </wgt>
<wgt id='97'> +4.9536071e+02 </wgt>
<wgt id='98'> +4.9878466e+02 </wgt>
<wgt id='99'> +4.7561733e+02 </wgt>
<wgt id='100'> +4.6577604e+02 </wgt>
<wgt id='101'> +5.5643014e+02 </wgt>
<wgt id='102'> +5.2239668e+02 </wgt>
<wgt id='103'> +5.3425861e+02 </wgt>
<wgt id='104'> +5.1002197e+02 </wgt>
<wgt id='105'> +5.2141211e+02 </wgt>
<wgt id='106'> +4.6872778e+02 </wgt>
<wgt id='107'> +4.8428937e+02 </wgt>
<wgt id='108'> +4.5361043e+02 </wgt>
<wgt id='109'> +4.8219343e+02 </wgt>
<wgt id='110'> +4.9871505e+02 </wgt>
<wgt id='111'> +4.9295477e+02 </wgt>
<wgt id='112'> +4.8557287e+02 </wgt>
<wgt id='113'> +4.7733666e+02 </wgt>
<wgt id='114'> +4.9989930e+02 </wgt>
<wgt id='115'> +4.7672992e+02 </wgt>
<wgt id='116'> +5.2242141e+02 </wgt>
<wgt id='117'> +4.9761768e+02 </wgt>
<wgt id='118'> +5.2612666e+02 </wgt>
<wgt id='119'> +5.0121483e+02 </wgt>
<wgt id='120'> +4.9462111e+02 </wgt>
<wgt id='121'> +4.9963451e+02 </wgt>
<wgt id='122'> +4.9978822e+02 </wgt>
<wgt id='123'> +5.0382810e+02 </wgt>
<wgt id='124'> +5.5525158e+02 </wgt>
<wgt id='125'> +5.6514446e+02 </wgt>
<wgt id='126'> +5.1525376e+02 </wgt>
<wgt id='127'> +5.1303528e+02 </wgt>
<wgt id='128'> +4.6259906e+02 </wgt>
<wgt id='129'> +5.5620659e+02 </wgt>
<wgt id='130'> +4.9570582e+02 </wgt>
<wgt id='131'> +5.1811012e+02 </wgt>
<wgt id='132'> +5.3380610e+02 </wgt>
<wgt id='133'> +5.2075028e+02 </wgt>
<wgt id='134'> +4.9719479e+02 </wgt>
<wgt id='135'> +5.0826434e+02 </wgt>
<wgt id='136'> +5.3079236e+02 </wgt>
<wgt id='137'> +4.8716348e+02 </wgt>
<wgt id='138'> +4.7679668e+02 </wgt>
<wgt id='139'> +5.1946392e+02 </wgt>
<wgt id='140'> +5.1530190e+02 </wgt>
<wgt id='141'> +5.1694363e+02 </wgt>
<wgt id='142'> +4.6813415e+02 </wgt>
<wgt id='143'> +5.1646521e+02 </wgt>
<wgt id='144'> +4.9320150e+02 </wgt>
<wgt id='145'> +4.9667392e+02 </wgt>
</rwgt>
</event>
<event>
 4      1 +5.0481800e+02 1.73827800e+02 7.54677100e-03 1.17391400e-01
        1 -1    0    0  502    0 +0.0000000000e+00 +0.0000000000e+00 +5.4417095869e+02 5.4417095869e+02 0.0000000000e+00 0.0000e+00 -1.0000e+00
       -1 -1    0    0    0  501 -0.0000000000e+00 -0.0000000000e+00 -6.1930959063e+01 6.1930959063e+01 0.0000000000e+00 0.0000e+00 1.0000e+00
        6  1    1    2  502    0 -1.5969215801e+01 -5.6635066081e+00 +3.3857219362e+02 3.8058799436e+02 1.7300000000e+02 0.0000e+00 -1.0000e+00
       -6  1    1    2    0  501 +1.5969215801e+01 +5.6635066081e+00 +1.4366780601e+02 2.2551392339e+02 1.7300000000e+02 0.0000e+00 1.0000e+00
<mgrwt>
<rscale>  2 0.17382776E+03</rscale>
<asrwt>0</asrwt>
<pdfrwt beam="1">  1        1 0.83718606E-01 0.17382776E+03</pdfrwt>
<pdfrwt beam="2">  1       -1 0.95278402E-02 0.17382776E+03</pdfrwt>
<totfact> 0.26081105E+03</totfact>
</mgrwt>
<rwgt>
<wgt id='1'> +6.0722257e+02 </wgt>
<wgt id='2'> +9.0760227e+02 </wgt>
<wgt id='3'> +5.0481800e+02 </wgt>
<wgt id='4'> +6.0722256e+02 </wgt>
<wgt id='5'> +4.9816363e+02 </wgt>
<wgt id='6'> +6.2246301e+02 </wgt>
<wgt id='7'> +9.5248149e+02 </wgt>
<wgt id='8'> +5.1341777e+02 </wgt>
<wgt id='9'> +6.2246301e+02 </wgt>
<wgt id='10'> +5.0636988e+02 </wgt>
<wgt id='11'> +6.3306692e+02 </wgt>
<wgt id='12'> +9.8579946e+02 </wgt>
<wgt id='13'> +5.1891420e+02 </wgt>
<wgt id='14'> +6.3306691e+02 </wgt>
<wgt id='15'> +5.1157383e+02 </wgt>
<wgt id='16'> +4.9245799e+02 </wgt>
<wgt id='17'> +6.9708136e+02 </wgt>
<wgt id='18'> +4.2366137e+02 </wgt>
<wgt id='19'> +4.9245799e+02 </wgt>
<wgt id='20'> +4.1881578e+02 </wgt>
<wgt id='21'> +7.3155071e+02 </wgt>
<wgt id='22'> +4.3087861e+02 </wgt>
<wgt id='23'> +5.0481800e+02 </wgt>
<wgt id='24'> +4.2571494e+02 </wgt>
<wgt id='25'> +5.1341778e+02 </wgt>
<wgt id='26'> +7.5714048e+02 </wgt>
<wgt id='27'> +4.3549141e+02 </wgt>
<wgt id='28'> +5.1341777e+02 </wgt>
<wgt id='29'> +4.3008999e+02 </wgt>
<wgt id='30'> +4.1328841e+02 </wgt>
<wgt id='31'> +5.5215037e+02 </wgt>
<wgt id='32'> +3.6090412e+02 </wgt>
<wgt id='33'> +4.1328841e+02 </wgt>
<wgt id='34'> +3.5713410e+02 </wgt>
<wgt id='35'> +4.2366138e+02 </wgt>
<wgt id='36'> +5.7945316e+02 </wgt>
<wgt id='37'> +3.6705227e+02 </wgt>
<wgt id='38'> +4.2366137e+02 </wgt>
<wgt id='39'> +3.6301717e+02 </wgt>
<wgt id='40'> +4.3087862e+02 </wgt>
<wgt id='41'> +5.9972253e+02 </wgt>
<wgt id='42'> +3.7098177e+02 </wgt>
<wgt id='43'> +4.3087861e+02 </wgt>
<wgt id='44'> +3.6674788e+02 </wgt>
<wgt id='45'> +5.0481800e+02 </wgt>
<wgt id='46'> +5.0415228e+02 </wgt>
<wgt id='47'> +5.0190263e+02 </wgt>
<wgt id='48'> +5.0082467e+02 </wgt>
<wgt id='49'> +4.6790260e+02 </wgt>
<wgt id='50'> +4.5913957e+02 </wgt>
<wgt id='51'> +5.2363782e+02 </wgt>
<wgt id='52'> +5.0690776e+02 </wgt>
<wgt id='53'> +4.9921137e+02 </wgt>
<wgt id='54'> +4.9868459e+02 </wgt>
<wgt id='55'> +5.0842281e+02 </wgt>
<wgt id='56'> +6.0406195e+02 </wgt>
<wgt id='57'> +4.8164745e+02 </wgt>
<wgt id='58'> +4.8457810e+02 </wgt>
<wgt id='59'> +4.5286422e+02 </wgt>
<wgt id='60'> +5.1292631e+02 </wgt>
<wgt id='61'> +5.2796493e+02 </wgt>
<wgt id='62'> +5.3002461e+02 </wgt>
<wgt id='63'> +5.1312180e+02 </wgt>
<wgt id='64'> +5.0827159e+02 </wgt>
<wgt id='65'> +5.2538449e+02 </wgt>
<wgt id='66'> +5.2035601e+02 </wgt>
<wgt id='67'> +5.4053630e+02 </wgt>
<wgt id='68'> +4.3565421e+02 </wgt>
<wgt id='69'> +4.8549278e+02 </wgt>
<wgt id='70'> +4.7320224e+02 </wgt>
<wgt id='71'> +5.4237933e+02 </wgt>
<wgt id='72'> +5.0814628e+02 </wgt>
<wgt id='73'> +5.2160107e+02 </wgt>
<wgt id='74'> +4.3990341e+02 </wgt>
<wgt id='75'> +5.0885681e+02 </wgt>
<wgt id='76'> +5.2689472e+02 </wgt>
<wgt id='77'> +5.2179592e+02 </wgt>
<wgt id='78'> +5.3226817e+02 </wgt>
<wgt id='79'> +5.1515363e+02 </wgt>
<wgt id='80'> +5.8073999e+02 </wgt>
<wgt id='81'> +4.8752232e+02 </wgt>
<wgt id='82'> +4.8254378e+02 </wgt>
<wgt id='83'> +4.8854517e+02 </wgt>
<wgt id='84'> +4.9438201e+02 </wgt>
<wgt id='85'> +5.1878974e+02 </wgt>
<wgt id='86'> +5.0755534e+02 </wgt>
<wgt id='87'> +5.0200578e+02 </wgt>
<wgt id='88'> +5.1274836e+02 </wgt>
<wgt id='89'> +4.8378577e+02 </wgt>
<wgt id='90'> +5.3333368e+02 </wgt>
<wgt id='91'> +5.1208264e+02 </wgt>
<wgt id='92'> +5.4976520e+02 </wgt>
<wgt id='93'> +5.1836877e+02 </wgt>
<wgt id='94'> +5.5686859e+02 </wgt>
<wgt id='95'> +5.1568264e+02 </wgt>
<wgt id='96'> +4.6946753e+02 </wgt>
<wgt id='97'> +5.5892175e+02 </wgt>
<wgt id='98'> +5.3394244e+02 </wgt>
<wgt id='99'> +5.2185150e+02 </wgt>
<wgt id='100'> +5.4331651e+02 </wgt>
<wgt id='101'> +4.2383661e+02 </wgt>
<wgt id='102'> +4.6237401e+02 </wgt>
<wgt id='103'> +4.4588114e+02 </wgt>
<wgt id='104'> +5.1312864e+02 </wgt>
<wgt id='105'> +4.8654552e+02 </wgt>
<wgt id='106'> +5.3277124e+02 </wgt>
<wgt id='107'> +4.8596580e+02 </wgt>
<wgt id='108'> +5.8869720e+02 </wgt>
<wgt id='109'> +5.2430007e+02 </wgt>
<wgt id='110'> +5.2087298e+02 </wgt>
<wgt id='111'> +5.2235995e+02 </wgt>
<wgt id='112'> +4.9903056e+02 </wgt>
<wgt id='113'> +4.9407272e+02 </wgt>
<wgt id='114'> +5.0367799e+02 </wgt>
<wgt id='115'> +5.5606213e+02 </wgt>
<wgt id='116'> +4.5698110e+02 </wgt>
<wgt id='117'> +5.1241811e+02 </wgt>
<wgt id='118'> +4.5265474e+02 </wgt>
<wgt id='119'> +4.8571740e+02 </wgt>
<wgt id='120'> +5.0109289e+02 </wgt>
<wgt id='121'> +4.7742379e+02 </wgt>
<wgt id='122'> +5.2123259e+02 </wgt>
<wgt id='123'> +5.5766700e+02 </wgt>
<wgt id='124'> +4.5612641e+02 </wgt>
<wgt id='125'> +4.2960534e+02 </wgt>
<wgt id='126'> +5.1665754e+02 </wgt>
<wgt id='127'> +5.1063460e+02 </wgt>
<wgt id='128'> +5.5723968e+02 </wgt>
<wgt id='129'> +4.3964172e+02 </wgt>
<wgt id='130'> +5.0249511e+02 </wgt>
<wgt id='131'> +5.0203034e+02 </wgt>
<wgt id='132'> +4.7575560e+02 </wgt>
<wgt id='133'> +4.5908399e+02 </wgt>
<wgt id='134'> +5.1710763e+02 </wgt>
<wgt id='135'> +4.7457493e+02 </wgt>
<wgt id='136'> +4.5983169e+02 </wgt>
<wgt id='137'> +5.2012626e+02 </wgt>
<wgt id='138'> +5.3490255e+02 </wgt>
<wgt id='139'> +4.5070912e+02 </wgt>
<wgt id='140'> +4.8672371e+02 </wgt>
<wgt id='141'> +4.6821320e+02 </wgt>
<wgt id='142'> +6.2688449e+02 </wgt>
<wgt id='143'> +5.0874161e+02 </wgt>
<wgt id='144'> +5.2663930e+02 </wgt>
<wgt id='145'> +5.0528390e+02 </wgt>
</rwgt>
</event>
<event>
 4      1 +5.0481800e+02 1.98514000e+02 7.54677100e-03 1.15099900e-01
       -2 -1    0    0    0  501 -0.0000000000e+00 +0.0000000000e+00 +1.1258357428e+02 1.1258357428e+02 0.0000000000e+00 0.0000e+00 -1.0000e+00
        2 -1    0    0  502    0 +0.0000000000e+00 -0.0000000000e+00 -3.6073244597e+02 3.6073244597e+02 0.0000000000e+00 0.0000e+00 1.0000e+00
        6  1    1    2  502    0 +4.2141542886e+00 +9.7268022242e+01 -8.3314423423e+01 2.1528845858e+02 1.7300000000e+02 0.0000e+00 1.0000e+00
       -6  1    1    2    0  501 -4.2141542886e+00 -9.7268022242e+01 -1.6483444826e+02 2.5802756167e+02 1.7300000000e+02 0.0000e+00 1.0000e+00
<mgrwt>
<rscale>  2 0.19851405E+03</rscale>
<asrwt>0</asrwt>
<pdfrwt beam="2">  1        2 0.55497299E-01 0.19851405E+03</pdfrwt>
<pdfrwt beam="1">  1       -2 0.17320550E-01 0.19851405E+03</pdfrwt>
<totfact> 0.23747451E+03</totfact>
</mgrwt>
<rwgt>
<wgt id='1'> +6.0283101e+02 </wgt>
<wgt id='2'> +5.4291410e+02 </wgt>
<wgt id='3'> +5.0481800e+02 </wgt>
<wgt id='4'> +6.0283102e+02 </wgt>
<wgt id='5'> +5.0307923e+02 </wgt>
<wgt id='6'> +6.1853442e+02 </wgt>
<wgt id='7'> +5.5452244e+02 </wgt>
<wgt id='8'> +5.1402978e+02 </wgt>
<wgt id='9'> +6.1853442e+02 </wgt>
<wgt id='10'> +5.1218392e+02 </wgt>
<wgt id='11'> +6.2982126e+02 </wgt>
<wgt id='12'> +5.6261241e+02 </wgt>
<wgt id='13'> +5.2029238e+02 </wgt>
<wgt id='14'> +6.2982126e+02 </wgt>
<wgt id='15'> +5.1836519e+02 </wgt>
<wgt id='16'> +4.9200164e+02 </wgt>
<wgt id='17'> +4.5246711e+02 </wgt>
<wgt id='18'> +4.2533914e+02 </wgt>
<wgt id='19'> +4.9200164e+02 </wgt>
<wgt id='20'> +4.2402341e+02 </wgt>
<wgt id='21'> +4.6214155e+02 </wgt>
<wgt id='22'> +4.3310062e+02 </wgt>
<wgt id='23'> +5.0481800e+02 </wgt>
<wgt id='24'> +4.3169735e+02 </wgt>
<wgt id='25'> +5.1402978e+02 </wgt>
<wgt id='26'> +4.6888377e+02 </wgt>
<wgt id='27'> +4.3837723e+02 </wgt>
<wgt id='28'> +5.1402978e+02 </wgt>
<wgt id='29'> +4.3690727e+02 </wgt>
<wgt id='30'> +4.1454060e+02 </wgt>
<wgt id='31'> +3.8424267e+02 </wgt>
<wgt id='32'> +3.6321160e+02 </wgt>
<wgt id='33'> +4.1454060e+02 </wgt>
<wgt id='34'> +3.6218645e+02 </wgt>
<wgt id='35'> +4.2533914e+02 </wgt>
<wgt id='36'> +3.9245837e+02 </wgt>
<wgt id='37'> +3.6983938e+02 </wgt>
<wgt id='38'> +4.2533914e+02 </wgt>
<wgt id='39'> +3.6874127e+02 </wgt>
<wgt id='40'> +4.3310061e+02 </wgt>
<wgt id='41'> +3.9818398e+02 </wgt>
<wgt id='42'> +3.7434526e+02 </wgt>
<wgt id='43'> +4.3310062e+02 </wgt>
<wgt id='44'> +3.7319141e+02 </wgt>
<wgt id='45'> +5.0481800e+02 </wgt>
<wgt id='46'> +5.0633217e+02 </wgt>
<wgt id='47'> +4.8837351e+02 </wgt>
<wgt id='48'> +4.9500154e+02 </wgt>
<wgt id='49'> +5.0304242e+02 </wgt>
<wgt id='50'> +4.6352614e+02 </wgt>
<wgt id='51'> +5.1575903e+02 </wgt>
<wgt id='52'> +4.9026793e+02 </wgt>
<wgt id='53'> +5.1526465e+02 </wgt>
<wgt id='54'> +4.9445127e+02 </wgt>
<wgt id='55'> +4.8676618e+02 </wgt>
<wgt id='56'> +5.3861842e+02 </wgt>
<wgt id='57'> +4.9670152e+02 </wgt>
<wgt id='58'> +5.1483231e+02 </wgt>
<wgt id='59'> +4.9336433e+02 </wgt>
<wgt id='60'> +5.0400119e+02 </wgt>
<wgt id='61'> +5.5179782e+02 </wgt>
<wgt id='62'> +5.3373900e+02 </wgt>
<wgt id='63'> +5.1500124e+02 </wgt>
<wgt id='64'> +4.9875546e+02 </wgt>
<wgt id='65'> +4.8270751e+02 </wgt>
<wgt id='66'> +5.3382264e+02 </wgt>
<wgt id='67'> +5.1557714e+02 </wgt>
<wgt id='68'> +4.2276512e+02 </wgt>
<wgt id='69'> +4.7434901e+02 </wgt>
<wgt id='70'> +4.9294878e+02 </wgt>
<wgt id='71'> +5.1900010e+02 </wgt>
<wgt id='72'> +5.1259145e+02 </wgt>
<wgt id='73'> +5.1433865e+02 </wgt>
<wgt id='74'> +4.5994932e+02 </wgt>
<wgt id='75'> +4.7437107e+02 </wgt>
<wgt id='76'> +5.2374002e+02 </wgt>
<wgt id='77'> +5.2418523e+02 </wgt>
<wgt id='78'> +5.2249382e+02 </wgt>
<wgt id='79'> +5.1374901e+02 </wgt>
<wgt id='80'> +5.3511672e+02 </wgt>
<wgt id='81'> +5.0080266e+02 </wgt>
<wgt id='82'> +5.0375041e+02 </wgt>
<wgt id='83'> +4.7776196e+02 </wgt>
<wgt id='84'> +5.1031116e+02 </wgt>
<wgt id='85'> +4.9981483e+02 </wgt>
<wgt id='86'> +5.0555268e+02 </wgt>
<wgt id='87'> +5.1130270e+02 </wgt>
<wgt id='88'> +5.0797063e+02 </wgt>
<wgt id='89'> +5.2242885e+02 </wgt>
<wgt id='90'> +5.4776164e+02 </wgt>
<wgt id='91'> +4.8200378e+02 </wgt>
<wgt id='92'> +5.3072223e+02 </wgt>
<wgt id='93'> +4.9404289e+02 </wgt>
<wgt id='94'> +5.1251908e+02 </wgt>
<wgt id='95'> +5.0357538e+02 </wgt>
<wgt id='96'> +4.9388082e+02 </wgt>
<wgt id='97'> +5.1945743e+02 </wgt>
<wgt id='98'> +5.1062159e+02 </wgt>
<wgt id='99'> +5.3076887e+02 </wgt>
<wgt id='100'> +5.4642683e+02 </wgt>
<wgt id='101'> +4.5087319e+02 </wgt>
<wgt id='102'> +4.7417748e+02 </wgt>
<wgt id='103'> +4.8920529e+02 </wgt>
<wgt id='104'> +4.9827032e+02 </wgt>
<wgt id='105'> +4.9408222e+02 </wgt>
<wgt id='106'> +5.3165848e+02 </wgt>
<wgt id='107'> +4.9805014e+02 </wgt>
<wgt id='108'> +5.4398619e+02 </wgt>
<wgt id='109'> +5.2814080e+02 </wgt>
<wgt id='110'> +5.3142373e+02 </wgt>
<wgt id='111'> +5.2196246e+02 </wgt>
<wgt id='112'> +5.1320837e+02 </wgt>
<wgt id='113'> +5.0942483e+02 </wgt>
<wgt id='114'> +5.1094360e+02 </wgt>
<wgt id='115'> +5.2339676e+02 </wgt>
<wgt id='116'> +4.9738702e+02 </wgt>
<wgt id='117'> +5.0237429e+02 </wgt>
<wgt id='118'> +4.7426141e+02 </wgt>
<wgt id='119'> +5.0905759e+02 </wgt>
<wgt id='120'> +4.9828747e+02 </wgt>
<wgt id='121'> +5.1271358e+02 </wgt>
<wgt id='122'> +5.1864423e+02 </wgt>
<wgt id='123'> +5.3770074e+02 </wgt>
<wgt id='124'> +4.8116952e+02 </wgt>
<wgt id='125'> +4.4792165e+02 </wgt>
<wgt id='126'> +5.0100223e+02 </wgt>
<wgt id='127'> +5.0261416e+02 </wgt>
<wgt id='128'> +5.2261825e+02 </wgt>
<wgt id='129'> +4.6676170e+02 </wgt>
<wgt id='130'> +4.9416247e+02 </wgt>
<wgt id='131'> +4.9104931e+02 </wgt>
<wgt id='132'> +4.7430723e+02 </wgt>
<wgt id='133'> +5.0669085e+02 </wgt>
<wgt id='134'> +4.8742410e+02 </wgt>
<wgt id='135'> +4.9451764e+02 </wgt>
<wgt id='136'> +4.8781601e+02 </wgt>
<wgt id='137'> +5.2806522e+02 </wgt>
<wgt id='138'> +5.1286656e+02 </wgt>
<wgt id='139'> +4.9236486e+02 </wgt>
<wgt id='140'> +4.8303538e+02 </wgt>
<wgt id='141'> +4.8212461e+02 </wgt>
<wgt id='142'> +5.5284000e+02 </wgt>
<wgt id='143'> +5.1953720e+02 </wgt>
<wgt id='144'> +5.3605086e+02 </wgt>
<wgt id='145'> +5.2043897e+02 </wgt>
</rwgt>
</event>
<event>
 4      1 +5.0481800e+02 2.06890500e+02 7.54677100e-03 1.14405200e-01
       21 -1    0    0  501  502 +0.0000000000e+00 +0.0000000000e+00 +2.2420030888e+02 2.2420030888e+02 0.0000000000e+00 0.0000e+00 -1.0000e+00
       21 -1    0    0  502  503 -0.0000000000e+00 -0.0000000000e+00 -9.6614441646e+02 9.6614441646e+02 0.0000000000e+00 0.0000e+00 1.0000e+00
        6  1    1    2  501    0 -1.1034357927e+02 -2.6438220391e+01 +1.6216178717e+02 2.6286903622e+02 1.7300000000e+02 0.0000e+00 -1.0000e+00
       -6  1    1    2    0  503 +1.1034357927e+02 +2.6438220391e+01 -9.0410589475e+02 9.2747568912e+02 1.7300000000e+02 0.0000e+00 1.0000e+00
<mgrwt>
<rscale>  2 0.20689051E+03</rscale>
<asrwt>0</asrwt>
<pdfrwt beam="1">  1       21 0.34492356E-01 0.20689051E+03</pdfrwt>
<pdfrwt beam="2">  1       21 0.14863760E+00 0.20689051E+03</pdfrwt>
<totfact> 0.24479492E+03</totfact>
</mgrwt>
<rwgt>
<wgt id='1'> +6.9381950e+02 </wgt>
<wgt id='2'> +6.1632636e+02 </wgt>
<wgt id='3'> +5.0481800e+02 </wgt>
<wgt id='4'> +6.9381949e+02 </wgt>
<wgt id='5'> +3.5759305e+02 </wgt>
<wgt id='6'> +6.1713877e+02 </wgt>
<wgt id='7'> +5.4542861e+02 </wgt>
<wgt id='8'> +4.4503627e+02 </wgt>
<wgt id='9'> +6.1713876e+02 </wgt>
<wgt id='10'> +3.1728829e+02 </wgt>
<wgt id='11'> +5.4405575e+02 </wgt>
<wgt id='12'> +4.8185492e+02 </wgt>
<wgt id='13'> +3.9451579e+02 </wgt>
<wgt id='14'> +5.4405575e+02 </wgt>
<wgt id='15'> +2.8302847e+02 </wgt>
<wgt id='16'> +5.6754264e+02 </wgt>
<wgt id='17'> +5.1096692e+02 </wgt>
<wgt id='18'> +4.2572892e+02 </wgt>
<wgt id='19'> +5.6754264e+02 </wgt>
<wgt id='20'> +3.0621955e+02 </wgt>
<wgt id='21'> +4.5218897e+02 </wgt>
<wgt id='22'> +3.7531311e+02 </wgt>
<wgt id='23'> +5.0481800e+02 </wgt>
<wgt id='24'> +2.7170516e+02 </wgt>
<wgt id='25'> +4.4503627e+02 </wgt>
<wgt id='26'> +3.9948303e+02 </wgt>
<wgt id='27'> +3.3270759e+02 </wgt>
<wgt id='28'> +4.4503627e+02 </wgt>
<wgt id='29'> +2.4236726e+02 </wgt>
<wgt id='30'> +4.7862659e+02 </wgt>
<wgt id='31'> +4.3305577e+02 </wgt>
<wgt id='32'> +3.6381528e+02 </wgt>
<wgt id='33'> +4.7862659e+02 </wgt>
<wgt id='34'> +2.6517192e+02 </wgt>
<wgt id='35'> +4.2572892e+02 </wgt>
<wgt id='36'> +3.8324015e+02 </wgt>
<wgt id='37'> +3.2073142e+02 </wgt>
<wgt id='38'> +4.2572892e+02 </wgt>
<wgt id='39'> +2.3528406e+02 </wgt>
<wgt id='40'> +3.7531311e+02 </wgt>
<wgt id='41'> +3.3857071e+02 </wgt>
<wgt id='42'> +2.8432202e+02 </wgt>
<wgt id='43'> +3.7531311e+02 </wgt>
<wgt id='44'> +2.0987881e+02 </wgt>
<wgt id='45'> +5.0481800e+02 </wgt>
<wgt id='46'> +5.2649325e+02 </wgt>
<wgt id='47'> +5.2760877e+02 </wgt>
<wgt id='48'> +5.1203965e+02 </wgt>
<wgt id='49'> +4.8147755e+02 </wgt>
<wgt id='50'> +6.3693100e+02 </wgt>
<wgt id='51'> +4.8302863e+02 </wgt>
<wgt id='52'> +4.9282649e+02 </wgt>
<wgt id='53'> +4.9618160e+02 </wgt>
<wgt id='54'> +5.2543672e+02 </wgt>
<wgt id='55'> +5.0473784e+02 </wgt>
<wgt id='56'> +4.5645853e+02 </wgt>
<wgt id='57'> +5.1877645e+02 </wgt>
<wgt id='58'> +4.6853552e+02 </wgt>
<wgt id='59'> +5.4314005e+02 </wgt>
<wgt id='60'> +5.0758109e+02 </wgt>
<wgt id='61'> +4.3767463e+02 </wgt>
<wgt id='62'> +4.8341510e+02 </wgt>
<wgt id='63'> +5.1799589e+02 </wgt>
<wgt id='64'> +4.9288720e+02 </wgt>
<wgt id='65'> +5.3152547e+02 </wgt>
<wgt id='66'> +5.0246562e+02 </wgt>
<wgt id='67'> +5.0739017e+02 </wgt>
<wgt id='68'> +5.9208962e+02 </wgt>
<wgt id='69'> +5.3297641e+02 </wgt>
<wgt id='70'> +5.1108354e+02 </wgt>
<wgt id='71'> +4.9333110e+02 </wgt>
<wgt id='72'> +4.5901586e+02 </wgt>
<wgt id='73'> +4.6760916e+02 </wgt>
<wgt id='74'> +5.6311310e+02 </wgt>
<wgt id='75'> +5.3195247e+02 </wgt>
<wgt id='76'> +5.0389080e+02 </wgt>
<wgt id='77'> +4.9106475e+02 </wgt>
<wgt id='78'> +4.5310254e+02 </wgt>
<wgt id='79'> +5.1759222e+02 </wgt>
<wgt id='80'> +4.6857087e+02 </wgt>
<wgt id='81'> +5.0048531e+02 </wgt>
<wgt id='82'> +4.8805248e+02 </wgt>
<wgt id='83'> +5.1167355e+02 </wgt>
<wgt id='84'> +5.3292815e+02 </wgt>
<wgt id='85'> +4.9214708e+02 </wgt>
<wgt id='86'> +5.2185957e+02 </wgt>
<wgt id='87'> +5.0751503e+02 </wgt>
<wgt id='88'> +5.0431392e+02 </wgt>
<wgt id='89'> +4.8252134e+02 </wgt>
<wgt id='90'> +4.9974903e+02 </wgt>
<wgt id='91'> +4.8458325e+02 </wgt>
<wgt id='92'> +4.4429628e+02 </wgt>
<wgt id='93'> +5.0904083e+02 </wgt>
<wgt id='94'> +4.7078350e+02 </wgt>
<wgt id='95'> +5.0816664e+02 </wgt>
<wgt id='96'> +5.5126330e+02 </wgt>
<wgt id='97'> +4.7715770e+02 </wgt>
<wgt id='98'> +5.1274175e+02 </wgt>
<wgt id='99'> +4.4887244e+02 </wgt>
<wgt id='100'> +4.1790968e+02 </wgt>
<wgt id='101'> +5.9342875e+02 </wgt>
<wgt id='102'> +5.5592135e+02 </wgt>
<wgt id='103'> +5.2893968e+02 </wgt>
<wgt id='104'> +5.2896134e+02 </wgt>
<wgt id='105'> +5.1496651e+02 </wgt>
<wgt id='106'> +4.5379531e+02 </wgt>
<wgt id='107'> +4.6667274e+02 </wgt>
<wgt id='108'> +4.3836499e+02 </wgt>
<wgt id='109'> +4.7490496e+02 </wgt>
<wgt id='110'> +4.8146475e+02 </wgt>
<wgt id='111'> +4.8603728e+02 </wgt>
<wgt id='112'> +4.9062931e+02 </wgt>
<wgt id='113'> +4.8033578e+02 </wgt>
<wgt id='114'> +4.9578954e+02 </wgt>
<wgt id='115'> +4.6108500e+02 </wgt>
<wgt id='116'> +5.5096382e+02 </wgt>
<wgt id='117'> +4.9302503e+02 </wgt>
<wgt id='118'> +5.4019796e+02 </wgt>
<wgt id='119'> +5.1162289e+02 </wgt>
<wgt id='120'> +4.9648896e+02 </wgt>
<wgt id='121'> +4.9245486e+02 </wgt>
<wgt id='122'> +4.9513038e+02 </wgt>
<wgt id='123'> +5.0315900e+02 </wgt>
<wgt id='124'> +5.8471243e+02 </wgt>
<wgt id='125'> +6.1124663e+02 </wgt>
<wgt id='126'> +5.1643409e+02 </wgt>
<wgt id='127'> +5.0904822e+02 </wgt>
<wgt id='128'> +4.6058608e+02 </wgt>
<wgt id='129'> +5.5524450e+02 </wgt>
<wgt id='130'> +4.9566317e+02 </wgt>
<wgt id='131'> +5.0147837e+02 </wgt>
<wgt id='132'> +5.4841583e+02 </wgt>
<wgt id='133'> +5.4277829e+02 </wgt>
<wgt id='134'> +5.0527983e+02 </wgt>
<wgt id='135'> +4.9971245e+02 </wgt>
<wgt id='136'> +5.5917969e+02 </wgt>
<wgt id='137'> +5.0257340e+02 </wgt>
<wgt id='138'> +5.0172174e+02 </wgt>
<wgt id='139'> +5.2537194e+02 </wgt>
<wgt id='140'> +5.0490819e+02 </wgt>
<wgt id='141'> +5.4101289e+02 </wgt>
<wgt id='142'> +4.1448607e+02 </wgt>
<wgt id='143'> +5.1941704e+02 </wgt>
<wgt id='144'> +4.7068259e+02 </wgt>
<wgt id='145'> +4.8442559e+02 </wgt>
</rwgt>
</event>
<event>
 4      1 +5.0481800e+02 2.19185900e+02 7.54677100e-03 1.13449100e-01
       21 -1    0    0  503  502 +0.0000000000e+00 +0.0000000000e+00 +2.4642187637e+02 2.4642187637e+02 0.0000000000e+00 0.0000e+00 1.0000e+00
       21 -1    0    0  501  503 -0.0000000000e+00 -0.0000000000e+00 -2.8045192219e+02 2.8045192219e+02 0.0000000000e+00 0.0000e+00 1.0000e+00
        6  1    1    2  501    0 -6.7809276937e+01 +1.1625550277e+02 -1.6246364705e+02 2.7283122361e+02 1.7300000000e+02 0.0000e+00 1.0000e+00
       -6  1    1    2    0  502 +6.7809276937e+01 -1.1625550277e+02 +1.2843360123e+02 2.5404257495e+02 1.7300000000e+02 0.0000e+00 1.0000e+00
<mgrwt>
<rscale>  2 0.21918586E+03</rscale>
<asrwt>0</asrwt>
<pdfrwt beam="1">  1       21 0.37911058E-01 0.21918586E+03</pdfrwt>
<pdfrwt beam="2">  1       21 0.43146449E-01 0.21918586E+03</pdfrwt>
<totfact> 0.34182558E+04</totfact>
</mgrwt>
<rwgt>
<wgt id='1'> +6.5444324e+02 </wgt>
<wgt id='2'> +5.4374396e+02 </wgt>
<wgt id='3'> +5.0481800e+02 </wgt>
<wgt id='4'> +6.5444324e+02 </wgt>
<wgt id='5'> +4.7286218e+02 </wgt>
<wgt id='6'> +6.1513025e+02 </wgt>
<wgt id='7'> +5.0499726e+02 </wgt>
<wgt id='8'> +4.6855163e+02 </wgt>
<wgt id='9'> +6.1513025e+02 </wgt>
<wgt id='10'> +4.3899071e+02 </wgt>
<wgt id='11'> +5.7093900e+02 </wgt>
<wgt id='12'> +4.6899848e+02 </wgt>
<wgt id='13'> +4.3528977e+02 </wgt>
<wgt id='14'> +5.7093900e+02 </wgt>
<wgt id='15'> +4.0796070e+02 </wgt>
<wgt id='16'> +5.3708093e+02 </wgt>
<wgt id='17'> +4.5676765e+02 </wgt>
<wgt id='18'> +4.2620223e+02 </wgt>
<wgt id='19'> +5.3708093e+02 </wgt>
<wgt id='20'> +4.0066200e+02 </wgt>
<wgt id='21'> +4.2421880e+02 </wgt>
<wgt id='22'> +3.9558366e+02 </wgt>
<wgt id='23'> +5.0481800e+02 </wgt>
<wgt id='24'> +3.7196228e+02 </wgt>
<wgt id='25'> +4.6855163e+02 </wgt>
<wgt id='26'> +3.9397833e+02 </wgt>
<wgt id='27'> +3.6750170e+02 </wgt>
<wgt id='28'> +4.6855163e+02 </wgt>
<wgt id='29'> +3.4567017e+02 </wgt>
<wgt id='30'> +4.5344083e+02 </wgt>
<wgt id='31'> +3.8931372e+02 </wgt>
<wgt id='32'> +3.6459170e+02 </wgt>
<wgt id='33'> +4.5344083e+02 </wgt>
<wgt id='34'> +3.4381967e+02 </wgt>
<wgt id='35'> +4.2620223e+02 </wgt>
<wgt id='36'> +3.6157158e+02 </wgt>
<wgt id='37'> +3.3839926e+02 </wgt>
<wgt id='38'> +4.2620223e+02 </wgt>
<wgt id='39'> +3.1919161e+02 </wgt>
<wgt id='40'> +3.9558366e+02 </wgt>
<wgt id='41'> +3.3579692e+02 </wgt>
<wgt id='42'> +3.1437674e+02 </wgt>
<wgt id='43'> +3.9558366e+02 </wgt>
<wgt id='44'> +2.9662959e+02 </wgt>
<wgt id='45'> +5.0481800e+02 </wgt>
<wgt id='46'> +5.0830135e+02 </wgt>
<wgt id='47'> +5.2562919e+02 </wgt>
<wgt id='48'> +5.0883455e+02 </wgt>
<wgt id='49'> +5.0384868e+02 </wgt>
<wgt id='50'> +6.0089169e+02 </wgt>
<wgt id='51'> +4.9518615e+02 </wgt>
<wgt id='52'> +5.0260942e+02 </wgt>
<wgt id='53'> +5.0860040e+02 </wgt>
<wgt id='54'> +5.0761109e+02 </wgt>
<wgt id='55'> +4.4822084e+02 </wgt>
<wgt id='56'> +4.6561194e+02 </wgt>
<wgt id='57'> +4.9002326e+02 </wgt>
<wgt id='58'> +5.0500748e+02 </wgt>
<wgt id='59'> +4.9983531e+02 </wgt>
<wgt id='60'> +4.8652305e+02 </wgt>
<wgt id='61'> +4.8647547e+02 </wgt>
<wgt id='62'> +4.9914394e+02 </wgt>
<wgt id='63'> +5.0527450e+02 </wgt>
<wgt id='64'> +4.9682826e+02 </wgt>
<wgt id='65'> +5.9806500e+02 </wgt>
<wgt id='66'> +4.9348280e+02 </wgt>
<wgt id='67'> +5.0944109e+02 </wgt>
<wgt id='68'> +5.4502338e+02 </wgt>
<wgt id='69'> +4.9703713e+02 </wgt>
<wgt id='70'> +4.9547124e+02 </wgt>
<wgt id='71'> +5.1431561e+02 </wgt>
<wgt id='72'> +4.8300990e+02 </wgt>
<wgt id='73'> +4.9652390e+02 </wgt>
<wgt id='74'> +5.2371195e+02 </wgt>
<wgt id='75'> +5.1741496e+02 </wgt>
<wgt id='76'> +4.8821572e+02 </wgt>
<wgt id='77'> +4.8801704e+02 </wgt>
<wgt id='78'> +5.0191198e+02 </wgt>
<wgt id='79'> +4.8566876e+02 </wgt>
<wgt id='80'> +4.9933594e+02 </wgt>
<wgt id='81'> +4.9378999e+02 </wgt>
<wgt id='82'> +5.1744764e+02 </wgt>
<wgt id='83'> +5.1799743e+02 </wgt>
<wgt id='84'> +5.5815087e+02 </wgt>
<wgt id='85'> +5.3269579e+02 </wgt>
<wgt id='86'> +5.0390181e+02 </wgt>
<wgt id='87'> +5.0607936e+02 </wgt>
<wgt id='88'> +5.1546684e+02 </wgt>
<wgt id='89'> +5.1895499e+02 </wgt>
<wgt id='90'> +5.1147329e+02 </wgt>
<wgt id='91'> +5.3738663e+02 </wgt>
<wgt id='92'> +4.5641915e+02 </wgt>
<wgt id='93'> +4.9805277e+02 </wgt>
<wgt id='94'> +4.9962022e+02 </wgt>
<wgt id='95'> +4.8115330e+02 </wgt>
<wgt id='96'> +5.5197557e+02 </wgt>
<wgt id='97'> +5.1096995e+02 </wgt>
<wgt id='98'> +4.8151455e+02 </wgt>
<wgt id='99'> +4.8883058e+02 </wgt>
<wgt id='100'> +4.9541428e+02 </wgt>
<wgt id='101'> +5.3719426e+02 </wgt>
<wgt id='102'> +4.9552106e+02 </wgt>
<wgt id='103'> +5.5228897e+02 </wgt>
<wgt id='104'> +5.0610747e+02 </wgt>
<wgt id='105'> +5.2205240e+02 </wgt>
<wgt id='106'> +4.5738698e+02 </wgt>
<wgt id='107'> +4.9264837e+02 </wgt>
<wgt id='108'> +4.4584069e+02 </wgt>
<wgt id='109'> +4.6979024e+02 </wgt>
<wgt id='110'> +5.0449896e+02 </wgt>
<wgt id='111'> +4.8902984e+02 </wgt>
<wgt id='112'> +4.7820553e+02 </wgt>
<wgt id='113'> +4.5960681e+02 </wgt>
<wgt id='114'> +4.9739941e+02 </wgt>
<wgt id='115'> +5.0065257e+02 </wgt>
<wgt id='116'> +5.0960443e+02 </wgt>
<wgt id='117'> +5.1002237e+02 </wgt>
<wgt id='118'> +5.2243595e+02 </wgt>
<wgt id='119'> +4.8252155e+02 </wgt>
<wgt id='120'> +4.9967901e+02 </wgt>
<wgt id='121'> +4.8790448e+02 </wgt>
<wgt id='122'> +4.9722350e+02 </wgt>
<wgt id='123'> +5.1328339e+02 </wgt>
<wgt id='124'> +5.4516154e+02 </wgt>
<wgt id='125'> +5.4562287e+02 </wgt>
<wgt id='126'> +5.2733148e+02 </wgt>
<wgt id='127'> +5.2210402e+02 </wgt>
<wgt id='128'> +4.6564668e+02 </wgt>
<wgt id='129'> +5.7457808e+02 </wgt>
<wgt id='130'> +5.1091583e+02 </wgt>
<wgt id='131'> +5.4152371e+02 </wgt>
<wgt id='132'> +5.0141511e+02 </wgt>
<wgt id='133'> +5.0478482e+02 </wgt>
<wgt id='134'> +4.7439093e+02 </wgt>
<wgt id='135'> +5.1816389e+02 </wgt>
<wgt id='136'> +4.8472638e+02 </wgt>
<wgt id='137'> +4.7662130e+02 </wgt>
<wgt id='138'> +4.6331779e+02 </wgt>
<wgt id='139'> +5.1652532e+02 </wgt>
<wgt id='140'> +5.3542685e+02 </wgt>
<wgt id='141'> +5.0516278e+02 </wgt>
<wgt id='142'> +5.0459519e+02 </wgt>
<wgt id='143'> +5.0154656e+02 </wgt>
<wgt id='144'> +5.0160691e+02 </wgt>
<wgt id='145'> +5.0620701e+02 </wgt>
</rwgt>
</event>
<event>
 4      1 +5.0481800e+02 2.62533100e+02 7.54677100e-03 1.10563100e-01
       -1 -1    0    0    0  501 -0.0000000000e+00 +0.0000000000e+00 +3.5868239097e+01 3.5868239097e+01 0.0000000000e+00 0.0000e+00 -1.0000e+00
        1 -1    0    0  502    0 +0.0000000000e+00 -0.0000000000e+00 -1.9246711066e+03 1.9246711066e+03 0.0000000000e+00 0.0000e+00 1.0000e+00
        6  1    1    2  502    0 -3.6629937729e+01 +1.9404348898e+02 -9.0510550919e+02 9.4241159305e+02 1.7300000000e+02 0.0000e+00 -1.0000e+00
       -6  1    1    2    0  501 +3.6629937729e+01 -1.9404348898e+02 -9.8369735835e+02 1.0181277527e+03 1.7300000000e+02 0.0000e+00 1.0000e+00
<mgrwt>
<rscale>  2 0.26253310E+03</rscale>
<asrwt>0</asrwt>
<pdfrwt beam="2">  1        1 0.29610316E+00 0.26253310E+03</pdfrwt>
<pdfrwt beam="1">  1       -1 0.55181923E-02 0.26253310E+03</pdfrwt>
<totfact> 0.57332564E+02</totfact>
</mgrwt>
<rwgt>
<wgt id='1'> +6.2392264e+02 </wgt>
<wgt id='2'> +5.4555680e+02 </wgt>
<wgt id='3'> +5.0481800e+02 </wgt>
<wgt id='4'> +6.2392264e+02 </wgt>
<wgt id='5'> +5.0470199e+02 </wgt>
<wgt id='6'> +6.0933906e+02 </wgt>
<wgt id='7'> +5.3171496e+02 </wgt>
<wgt id='8'> +4.9145520e+02 </wgt>
<wgt id='9'> +6.0933906e+02 </wgt>
<wgt id='10'> +4.9134073e+02 </wgt>
<wgt id='11'> +5.9320953e+02 </wgt>
<wgt id='12'> +5.1688365e+02 </wgt>
<wgt id='13'> +4.7738463e+02 </wgt>
<wgt id='14'> +5.9320953e+02 </wgt>
<wgt id='15'> +4.7727243e+02 </wgt>
<wgt id='16'> +5.1690003e+02 </wgt>
<wgt id='17'> +4.5977937e+02 </wgt>
<wgt id='18'> +4.2772717e+02 </wgt>
<wgt id='19'> +5.1690003e+02 </wgt>
<wgt id='20'> +4.2763568e+02 </wgt>
<wgt id='21'> +4.4811386e+02 </wgt>
<wgt id='22'> +4.1640500e+02 </wgt>
<wgt id='23'> +5.0481800e+02 </wgt>
<wgt id='24'> +4.1631463e+02 </wgt>
<wgt id='25'> +4.9145520e+02 </wgt>
<wgt id='26'> +4.3561447e+02 </wgt>
<wgt id='27'> +4.0448315e+02 </wgt>
<wgt id='28'> +4.9145520e+02 </wgt>
<wgt id='29'> +4.0439452e+02 </wgt>
<wgt id='30'> +4.3796415e+02 </wgt>
<wgt id='31'> +3.9269658e+02 </wgt>
<wgt id='32'> +3.6703678e+02 </wgt>
<wgt id='33'> +4.3796415e+02 </wgt>
<wgt id='34'> +3.6696322e+02 </wgt>
<wgt id='35'> +4.2772717e+02 </wgt>
<wgt id='36'> +3.8273310e+02 </wgt>
<wgt id='37'> +3.5732112e+02 </wgt>
<wgt id='38'> +4.2772717e+02 </wgt>
<wgt id='39'> +3.5724840e+02 </wgt>
<wgt id='40'> +4.1640500e+02 </wgt>
<wgt id='41'> +3.7205740e+02 </wgt>
<wgt id='42'> +3.4709087e+02 </wgt>
<wgt id='43'> +4.1640500e+02 </wgt>
<wgt id='44'> +3.4701949e+02 </wgt>
<wgt id='45'> +5.0481800e+02 </wgt>
<wgt id='46'> +4.9244683e+02 </wgt>
<wgt id='47'> +4.7562660e+02 </wgt>
<wgt id='48'> +5.5917958e+02 </wgt>
<wgt id='49'> +5.3105127e+02 </wgt>
<wgt id='50'> +4.1907037e+02 </wgt>
<wgt id='51'> +5.7524945e+02 </wgt>
<wgt id='52'> +4.8962403e+02 </wgt>
<wgt id='53'> +4.5797347e+02 </wgt>
<wgt id='54'> +4.8156888e+02 </wgt>
<wgt id='55'> +5.4771292e+02 </wgt>
<wgt id='56'> +5.5960756e+02 </wgt>
<wgt id='57'> +4.7875728e+02 </wgt>
<wgt id='58'> +4.5508208e+02 </wgt>
<wgt id='59'> +5.2728463e+02 </wgt>
<wgt id='60'> +4.5965636e+02 </wgt>
<wgt id='61'> +5.3757512e+02 </wgt>
<wgt id='62'> +5.4397193e+02 </wgt>
<wgt id='63'> +4.9140831e+02 </wgt>
<wgt id='64'> +4.8882844e+02 </wgt>
<wgt id='65'> +5.3934878e+02 </wgt>
<wgt id='66'> +6.1844621e+02 </wgt>
<wgt id='67'> +5.2113920e+02 </wgt>
<wgt id='68'> +3.9790905e+02 </wgt>
<wgt id='69'> +4.9869350e+02 </wgt>
<wgt id='70'> +4.4150270e+02 </wgt>
<wgt id='71'> +6.0809243e+02 </wgt>
<wgt id='72'> +5.0748453e+02 </wgt>
<wgt id='73'> +4.8605915e+02 </wgt>
<wgt id='74'> +3.9706034e+02 </wgt>
<wgt id='75'> +4.3500356e+02 </wgt>
<wgt id='76'> +4.9371549e+02 </wgt>
<wgt id='77'> +5.8339539e+02 </wgt>
<wgt id='78'> +5.2013894e+02 </wgt>
<wgt id='79'> +4.9264406e+02 </wgt>
<wgt id='80'> +5.7998689e+02 </wgt>
<wgt id='81'> +4.7926191e+02 </wgt>
<wgt id='82'> +5.4240201e+02 </wgt>
<wgt id='83'> +4.9436750e+02 </wgt>
<wgt id='84'> +5.2939741e+02 </wgt>
<wgt id='85'> +5.0589301e+02 </wgt>
<wgt id='86'> +4.7291163e+02 </wgt>
<wgt id='87'> +4.7623213e+02 </wgt>
<wgt id='88'> +4.9733853e+02 </wgt>
<wgt id='89'> +5.3083863e+02 </wgt>
<wgt id='90'> +5.5241666e+02 </wgt>
<wgt id='91'> +6.2206870e+02 </wgt>
<wgt id='92'> +5.3743513e+02 </wgt>
<wgt id='93'> +4.8388318e+02 </wgt>
<wgt id='94'> +5.3456302e+02 </wgt>
<wgt id='95'> +4.8648442e+02 </wgt>
<wgt id='96'> +4.9455963e+02 </wgt>
<wgt id='97'> +5.2477322e+02 </wgt>
<wgt id='98'> +4.9709285e+02 </wgt>
<wgt id='99'> +5.2830131e+02 </wgt>
<wgt id='100'> +6.1560142e+02 </wgt>
<wgt id='101'> +4.5124006e+02 </wgt>
<wgt id='102'> +4.5344042e+02 </wgt>
<wgt id='103'> +4.3083461e+02 </wgt>
<wgt id='104'> +6.0033637e+02 </wgt>
<wgt id='105'> +4.7203962e+02 </wgt>
<wgt id='106'> +5.1858063e+02 </wgt>
<wgt id='107'> +5.2386012e+02 </wgt>
<wgt id='108'> +5.7209641e+02 </wgt>
<wgt id='109'> +5.7010239e+02 </wgt>
<wgt id='110'> +5.0661778e+02 </wgt>
<wgt id='111'> +5.1094788e+02 </wgt>
<wgt id='112'> +4.9576212e+02 </wgt>
<wgt id='113'> +4.6041146e+02 </wgt>
<wgt id='114'> +5.7471454e+02 </wgt>
<wgt id='115'> +5.7789741e+02 </wgt>
<wgt id='116'> +5.3900346e+02 </wgt>
<wgt id='117'> +5.0223370e+02 </wgt>
<wgt id='118'> +4.3309038e+02 </wgt>
<wgt id='119'> +4.4157938e+02 </wgt>
<wgt id='120'> +4.8923913e+02 </wgt>
<wgt id='121'> +5.2928117e+02 </wgt>
<wgt id='122'> +5.0497069e+02 </wgt>
<wgt id='123'> +5.1496499e+02 </wgt>
<wgt id='124'> +4.0258026e+02 </wgt>
<wgt id='125'> +3.3534969e+02 </wgt>
<wgt id='126'> +4.9701750e+02 </wgt>
<wgt id='127'> +4.7787181e+02 </wgt>
<wgt id='128'> +6.2819897e+02 </wgt>
<wgt id='129'> +4.6339739e+02 </wgt>
<wgt id='130'> +5.0358751e+02 </wgt>
<wgt id='131'> +4.9594443e+02 </wgt>
<wgt id='132'> +4.4766189e+02 </wgt>
<wgt id='133'> +4.7449544e+02 </wgt>
<wgt id='134'> +5.0447000e+02 </wgt>
<wgt id='135'> +5.2619476e+02 </wgt>
<wgt id='136'> +4.1888020e+02 </wgt>
<wgt id='137'> +5.0792311e+02 </wgt>
<wgt id='138'> +5.3740170e+02 </wgt>
<wgt id='139'> +4.7663671e+02 </wgt>
<wgt id='140'> +4.4827201e+02 </wgt>
<wgt id='141'> +4.4025375e+02 </wgt>
<wgt id='142'> +6.2249445e+02 </wgt>
<wgt id='143'> +4.7589030e+02 </wgt>
<wgt id='144'> +5.2065441e+02 </wgt>
<wgt id='145'> +5.3247987e+02 </wgt>
</rwgt>
</event>
<event>
 4      1 +5.0481800e+02 2.29066000e+02 7.54677100e-03 1.12729900e-01
       21 -1    0    0  501  502 +0.0000000000e+00 +0.0000000000e+00 +8.3996404517e+02 8.3996404517e+02 0.0000000000e+00 0.0000e+00 1.0000e+00
       21 -1    0    0  502  503 -0.0000000000e+00 -0.0000000000e+00 -1.6436894261e+02 1.6436894261e+02 0.0000000000e+00 0.0000e+00 1.0000e+00
        6  1    1    2  501    0 -5.4608217701e+01 +1.3985773883e+02 +7.3318785223e+02 7.6813779442e+02 1.7300000000e+02 0.0000e+00 1.0000e+00
       -6  1    1    2    0  503 +5.4608217701e+01 -1.3985773883e+02 -5.7592749670e+01 2.3619519336e+02 1.7300000000e+02 0.0000e+00 1.0000e+00
<mgrwt>
<rscale>  2 0.22906603E+03</rscale>
<asrwt>0</asrwt>
<pdfrwt beam="1">  1       21 0.12922523E+00 0.22906603E+03</pdfrwt>
<pdfrwt beam="2">  1       21 0.25287530E-01 0.22906603E+03</pdfrwt>
<totfact> 0.63288612E+03</totfact>
</mgrwt>
<rwgt>
<wgt id='1'> +6.7758619e+02 </wgt>
<wgt id='2'> +5.4870912e+02 </wgt>
<wgt id='3'> +5.0481800e+02 </wgt>
<wgt id='4'> +6.7758619e+02 </wgt>
<wgt id='5'> +4.1576538e+02 </wgt>
<wgt id='6'> +6.1364679e+02 </wgt>
<wgt id='7'> +4.9265188e+02 </wgt>
<wgt id='8'> +4.5359225e+02 </wgt>
<wgt id='9'> +6.1364680e+02 </wgt>
<wgt id='10'> +3.7452123e+02 </wgt>
<wgt id='11'> +5.5137778e+02 </wgt>
<wgt id='12'> +4.4380006e+02 </wgt>
<wgt id='13'> +4.0905997e+02 </wgt>
<wgt id='14'> +5.5137778e+02 </wgt>
<wgt id='15'> +3.3865847e+02 </wgt>
<wgt id='16'> +5.5741790e+02 </wgt>
<wgt id='17'> +4.6158847e+02 </wgt>
<wgt id='18'> +4.2655821e+02 </wgt>
<wgt id='19'> +5.5741790e+02 </wgt>
<wgt id='20'> +3.5461009e+02 </wgt>
<wgt id='21'> +4.1443165e+02 </wgt>
<wgt id='22'> +3.8327377e+02 </wgt>
<wgt id='23'> +5.0481800e+02 </wgt>
<wgt id='24'> +3.1943258e+02 </wgt>
<wgt id='25'> +4.5359224e+02 </wgt>
<wgt id='26'> +3.7333622e+02 </wgt>
<wgt id='27'> +3.4564514e+02 </wgt>
<wgt id='28'> +4.5359225e+02 </wgt>
<wgt id='29'> +2.8884490e+02 </wgt>
<wgt id='30'> +4.7100377e+02 </wgt>
<wgt id='31'> +3.9375169e+02 </wgt>
<wgt id='32'> +3.6517681e+02 </wgt>
<wgt id='33'> +4.7100377e+02 </wgt>
<wgt id='34'> +3.0602000e+02 </wgt>
<wgt id='35'> +4.2655821e+02 </wgt>
<wgt id='36'> +3.5352522e+02 </wgt>
<wgt id='37'> +3.2812096e+02 </wgt>
<wgt id='38'> +4.2655821e+02 </wgt>
<wgt id='39'> +2.7566265e+02 </wgt>
<wgt id='40'> +3.8327376e+02 </wgt>
<wgt id='41'> +3.1846932e+02 </wgt>
<wgt id='42'> +2.9590707e+02 </wgt>
<wgt id='43'> +3.8327377e+02 </wgt>
<wgt id='44'> +2.4926622e+02 </wgt>
<wgt id='45'> +5.0481800e+02 </wgt>
<wgt id='46'> +5.2225374e+02 </wgt>
<wgt id='47'> +5.2481269e+02 </wgt>
<wgt id='48'> +5.1062210e+02 </wgt>
<wgt id='49'> +4.8737585e+02 </wgt>
<wgt id='50'> +6.2308012e+02 </wgt>
<wgt id='51'> +4.8671268e+02 </wgt>
<wgt id='52'> +4.9728454e+02 </wgt>
<wgt id='53'> +4.9728475e+02 </wgt>
<wgt id='54'> +5.2078173e+02 </wgt>
<wgt id='55'> +4.9397295e+02 </wgt>
<wgt id='56'> +4.5805030e+02 </wgt>
<wgt id='57'> +5.1423092e+02 </wgt>
<wgt id='58'> +4.7819498e+02 </wgt>
<wgt id='59'> +5.3510999e+02 </wgt>
<wgt id='60'> +5.0539450e+02 </wgt>
<wgt id='61'> +4.3507091e+02 </wgt>
<wgt id='62'> +4.8821133e+02 </wgt>
<wgt id='63'> +5.1342284e+02 </wgt>
<wgt id='64'> +4.9416582e+02 </wgt>
<wgt id='65'> +5.4455644e+02 </wgt>
<wgt id='66'> +5.0004398e+02 </wgt>
<wgt id='67'> +5.0738465e+02 </wgt>
<wgt id='68'> +5.7697019e+02 </wgt>
<wgt id='69'> +5.2171845e+02 </wgt>
<wgt id='70'> +5.0555276e+02 </wgt>
<wgt id='71'> +5.0001592e+02 </wgt>
<wgt id='72'> +4.6948209e+02 </wgt>
<wgt id='73'> +4.7555695e+02 </wgt>
<wgt id='74'> +5.5092669e+02 </wgt>
<wgt id='75'> +5.2539161e+02 </wgt>
<wgt id='76'> +5.0193949e+02 </wgt>
<wgt id='77'> +4.9267297e+02 </wgt>
<wgt id='78'> +4.6490937e+02 </wgt>
<wgt id='79'> +5.0982181e+02 </wgt>
<wgt id='80'> +4.7757027e+02 </wgt>
<wgt id='81'> +4.9818853e+02 </wgt>
<wgt id='82'> +4.9043105e+02 </wgt>
<wgt id='83'> +5.1158809e+02 </wgt>
<wgt id='84'> +5.3693658e+02 </wgt>
<wgt id='85'> +5.0076213e+02 </wgt>
<wgt id='86'> +5.1606607e+02 </wgt>
<wgt id='87'> +5.0782598e+02 </wgt>
<wgt id='88'> +5.0584596e+02 </wgt>
<wgt id='89'> +4.9389190e+02 </wgt>
<wgt id='90'> +5.0570548e+02 </wgt>
<wgt id='91'> +4.9747794e+02 </wgt>
<wgt id='92'> +4.5081875e+02 </wgt>
<wgt id='93'> +5.0631452e+02 </wgt>
<wgt id='94'> +4.7837506e+02 </wgt>
<wgt id='95'> +5.0491569e+02 </wgt>
<wgt id='96'> +5.4647989e+02 </wgt>
<wgt id='97'> +4.8592706e+02 </wgt>
<wgt id='98'> +5.0543785e+02 </wgt>
<wgt id='99'> +4.6037198e+02 </wgt>
<wgt id='100'> +4.3813623e+02 </wgt>
<wgt id='101'> +5.7861228e+02 </wgt>
<wgt id='102'> +5.4131941e+02 </wgt>
<wgt id='103'> +5.3435984e+02 </wgt>
<wgt id='104'> +5.2157479e+02 </wgt>
<wgt id='105'> +5.1734322e+02 </wgt>
<wgt id='106'> +4.5673390e+02 </wgt>
<wgt id='107'> +4.7211619e+02 </wgt>
<wgt id='108'> +4.4187986e+02 </wgt>
<wgt id='109'> +4.7570717e+02 </wgt>
<wgt id='110'> +4.8864833e+02 </wgt>
<wgt id='111'> +4.8856429e+02 </wgt>
<wgt id='112'> +4.8617047e+02 </wgt>
<wgt id='113'> +4.7562632e+02 </wgt>
<wgt id='114'> +4.9595546e+02 </wgt>
<wgt id='115'> +4.6936312e+02 </wgt>
<wgt id='116'> +5.3955922e+02 </wgt>
<wgt id='117'> +4.9573357e+02 </wgt>
<wgt id='118'> +5.3589694e+02 </wgt>
<wgt id='119'> +5.0420204e+02 </wgt>
<wgt id='120'> +4.9683057e+02 </wgt>
<wgt id='121'> +4.9410688e+02 </wgt>
<wgt id='122'> +4.9699058e+02 </wgt>
<wgt id='123'> +5.0562637e+02 </wgt>
<wgt id='124'> +5.7399935e+02 </wgt>
<wgt id='125'> +5.9142473e+02 </wgt>
<wgt id='126'> +5.1797281e+02 </wgt>
<wgt id='127'> +5.1242774e+02 </wgt>
<wgt id='128'> +4.6046493e+02 </wgt>
<wgt id='129'> +5.5884946e+02 </wgt>
<wgt id='130'> +4.9783533e+02 </wgt>
<wgt id='131'> +5.1091179e+02 </wgt>
<wgt id='132'> +5.4067338e+02 </wgt>
<wgt id='133'> +5.3313556e+02 </wgt>
<wgt id='134'> +4.9965080e+02 </wgt>
<wgt id='135'> +5.0422024e+02 </wgt>
<wgt id='136'> +5.4409749e+02 </wgt>
<wgt id='137'> +4.9533607e+02 </wgt>
<wgt id='138'> +4.9165514e+02 </wgt>
<wgt id='139'> +5.2294387e+02 </wgt>
<wgt id='140'> +5.1041678e+02 </wgt>
<wgt id='141'> +5.2996692e+02 </wgt>
<wgt id='142'> +4.3923835e+02 </wgt>
<wgt id='143'> +5.1736552e+02 </wgt>
<wgt id='144'> +4.7967957e+02 </wgt>
<wgt id='145'> +4.9098668e+02 </wgt>
</rwgt>
</event>
<event>
 4      1 +5.0481800e+02 1.81359700e+02 7.54677100e-03 1.16649400e-01
       21 -1    0    0  501  502 +0.0000000000e+00 +0.0000000000e+00 +2.0149708309e+02 2.0149708309e+02 0.0000000000e+00 0.0000e+00 -1.0000e+00
       21 -1    0    0  502  503 -0.0000000000e+00 -0.0000000000e+00 -1.6334151774e+02 1.6334151774e+02 0.0000000000e+00 0.0000e+00 1.0000e+00
        6  1    1    2  501    0 +4.8641828163e+01 -2.4419550859e+01 +1.4415681512e+01 1.8193172836e+02 1.7300000000e+02 0.0000e+00 1.0000e+00
       -6  1    1    2    0  503 -4.8641828163e+01 +2.4419550859e+01 +2.3739883842e+01 1.8290687247e+02 1.7300000000e+02 0.0000e+00 1.0000e+00
<mgrwt>
<rscale>  2 0.18135970E+03</rscale>
<asrwt>0</asrwt>
<pdfrwt beam="1">  1       21 0.30999551E-01 0.18135970E+03</pdfrwt>
<pdfrwt beam="2">  1       21 0.25129464E-01 0.18135970E+03</pdfrwt>
<totfact> 0.15045666E+05</totfact>
</mgrwt>
<rwgt>
<wgt id='1'> +6.3987832e+02 </wgt>
<wgt id='2'> +5.1403651e+02 </wgt>
<wgt id='3'> +5.0481800e+02 </wgt>
<wgt id='4'> +6.3987832e+02 </wgt>
<wgt id='5'> +5.0476324e+02 </wgt>
<wgt id='6'> +6.2119517e+02 </wgt>
<wgt id='7'> +4.8934116e+02 </wgt>
<wgt id='8'> +4.8016375e+02 </wgt>
<wgt id='9'> +6.2119516e+02 </wgt>
<wgt id='10'> +4.8010956e+02 </wgt>
<wgt id='11'> +5.9085731e+02 </wgt>
<wgt id='12'> +4.6438142e+02 </wgt>
<wgt id='13'> +4.5562572e+02 </wgt>
<wgt id='14'> +5.9085730e+02 </wgt>
<wgt id='15'> +4.5557403e+02 </wgt>
<wgt id='16'> +5.2000098e+02 </wgt>
<wgt id='17'> +4.3121837e+02 </wgt>
<wgt id='18'> +4.2425073e+02 </wgt>
<wgt id='19'> +5.2000098e+02 </wgt>
<wgt id='20'> +4.2420905e+02 </wgt>
<wgt id='21'> +4.1050177e+02 </wgt>
<wgt id='22'> +4.0353122e+02 </wgt>
<wgt id='23'> +5.0481800e+02 </wgt>
<wgt id='24'> +4.0348980e+02 </wgt>
<wgt id='25'> +4.8016376e+02 </wgt>
<wgt id='26'> +3.8956338e+02 </wgt>
<wgt id='27'> +3.8290938e+02 </wgt>
<wgt id='28'> +4.8016375e+02 </wgt>
<wgt id='29'> +3.8286985e+02 </wgt>
<wgt id='30'> +4.3701056e+02 </wgt>
<wgt id='31'> +3.6725977e+02 </wgt>
<wgt id='32'> +3.6168838e+02 </wgt>
<wgt id='33'> +4.3701055e+02 </wgt>
<wgt id='34'> +3.6165500e+02 </wgt>
<wgt id='35'> +4.2425073e+02 </wgt>
<wgt id='36'> +3.4961586e+02 </wgt>
<wgt id='37'> +3.4402428e+02 </wgt>
<wgt id='38'> +4.2425073e+02 </wgt>
<wgt id='39'> +3.4399102e+02 </wgt>
<wgt id='40'> +4.0353122e+02 </wgt>
<wgt id='41'> +3.3178307e+02 </wgt>
<wgt id='42'> +3.2644345e+02 </wgt>
<wgt id='43'> +4.0353122e+02 </wgt>
<wgt id='44'> +3.2641170e+02 </wgt>
<wgt id='45'> +5.0481800e+02 </wgt>
<wgt id='46'> +4.9925222e+02 </wgt>
<wgt id='47'> +5.1956543e+02 </wgt>
<wgt id='48'> +5.0278998e+02 </wgt>
<wgt id='49'> +5.0428079e+02 </wgt>
<wgt id='50'> +5.7321384e+02 </wgt>
<wgt id='51'> +4.9512328e+02 </wgt>
<wgt id='52'> +5.0038555e+02 </wgt>
<wgt id='53'> +5.1556728e+02 </wgt>
<wgt id='54'> +5.0767477e+02 </wgt>
<wgt id='55'> +4.5225513e+02 </wgt>
<wgt id='56'> +4.7635905e+02 </wgt>
<wgt id='57'> +4.9123598e+02 </wgt>
<wgt id='58'> +5.1345428e+02 </wgt>
<wgt id='59'> +4.9092708e+02 </wgt>
<wgt id='60'> +4.7834658e+02 </wgt>
<wgt id='61'> +5.0409572e+02 </wgt>
<wgt id='62'> +4.9720557e+02 </wgt>
<wgt id='63'> +5.0527285e+02 </wgt>
<wgt id='64'> +5.0559189e+02 </wgt>
<wgt id='65'> +5.9629012e+02 </wgt>
<wgt id='66'> +4.9179453e+02 </wgt>
<wgt id='67'> +5.0941457e+02 </wgt>
<wgt id='68'> +5.3347432e+02 </wgt>
<wgt id='69'> +4.8575917e+02 </wgt>
<wgt id='70'> +4.9764461e+02 </wgt>
<wgt id='71'> +5.1462017e+02 </wgt>
<wgt id='72'> +5.0090227e+02 </wgt>
<wgt id='73'> +5.0099399e+02 </wgt>
<wgt id='74'> +5.1340223e+02 </wgt>
<wgt id='75'> +5.1442858e+02 </wgt>
<wgt id='76'> +4.9148786e+02 </wgt>
<wgt id='77'> +4.8273898e+02 </wgt>
<wgt id='78'> +5.1198993e+02 </wgt>
<wgt id='79'> +4.8060463e+02 </wgt>
<wgt id='80'> +5.0290950e+02 </wgt>
<wgt id='81'> +4.9788401e+02 </wgt>
<wgt id='82'> +5.2215440e+02 </wgt>
<wgt id='83'> +5.1246202e+02 </wgt>
<wgt id='84'> +5.5129509e+02 </wgt>
<wgt id='85'> +5.3133660e+02 </wgt>
<wgt id='86'> +4.9803893e+02 </wgt>
<wgt id='87'> +5.0265140e+02 </wgt>
<wgt id='88'> +5.1202879e+02 </wgt>
<wgt id='89'> +5.1386409e+02 </wgt>
<wgt id='90'> +5.0806280e+02 </wgt>
<wgt id='91'> +5.3893725e+02 </wgt>
<wgt id='92'> +4.7502209e+02 </wgt>
<wgt id='93'> +4.9292953e+02 </wgt>
<wgt id='94'> +5.0640295e+02 </wgt>
<wgt id='95'> +4.8660325e+02 </wgt>
<wgt id='96'> +5.3788387e+02 </wgt>
<wgt id='97'> +5.1623348e+02 </wgt>
<wgt id='98'> +4.8031545e+02 </wgt>
<wgt id='99'> +4.9273913e+02 </wgt>
<wgt id='100'> +5.1110675e+02 </wgt>
<wgt id='101'> +5.1800810e+02 </wgt>
<wgt id='102'> +4.8021871e+02 </wgt>
<wgt id='103'> +5.4299862e+02 </wgt>
<wgt id='104'> +5.0106240e+02 </wgt>
<wgt id='105'> +5.2859631e+02 </wgt>
<wgt id='106'> +4.7417467e+02 </wgt>
<wgt id='107'> +5.0864455e+02 </wgt>
<wgt id='108'> +4.6227137e+02 </wgt>
<wgt id='109'> +4.8025279e+02 </wgt>
<wgt id='110'> +5.0763631e+02 </wgt>
<wgt id='111'> +4.9518539e+02 </wgt>
<wgt id='112'> +4.8756128e+02 </wgt>
<wgt id='113'> +4.6832887e+02 </wgt>
<wgt id='114'> +5.1363157e+02 </wgt>
<wgt id='115'> +5.1700039e+02 </wgt>
<wgt id='116'> +4.9573118e+02 </wgt>
<wgt id='117'> +5.1548222e+02 </wgt>
<wgt id='118'> +5.0958344e+02 </wgt>
<wgt id='119'> +4.8814584e+02 </wgt>
<wgt id='120'> +5.0997090e+02 </wgt>
<wgt id='121'> +4.9352268e+02 </wgt>
<wgt id='122'> +4.9945339e+02 </wgt>
<wgt id='123'> +5.0933944e+02 </wgt>
<wgt id='124'> +5.2850019e+02 </wgt>
<wgt id='125'> +5.3066596e+02 </wgt>
<wgt id='126'> +5.2072351e+02 </wgt>
<wgt id='127'> +5.1664688e+02 </wgt>
<wgt id='128'> +4.7481835e+02 </wgt>
<wgt id='129'> +5.6795078e+02 </wgt>
<wgt id='130'> +5.0741686e+02 </wgt>
<wgt id='131'> +5.4109362e+02 </wgt>
<wgt id='132'> +4.9242260e+02 </wgt>
<wgt id='133'> +4.9487194e+02 </wgt>
<wgt id='134'> +4.7338386e+02 </wgt>
<wgt id='135'> +5.1779702e+02 </wgt>
<wgt id='136'> +4.7853769e+02 </wgt>
<wgt id='137'> +4.7322129e+02 </wgt>
<wgt id='138'> +4.5244627e+02 </wgt>
<wgt id='139'> +5.1098322e+02 </wgt>
<wgt id='140'> +5.4040289e+02 </wgt>
<wgt id='141'> +5.0203685e+02 </wgt>
<wgt id='142'> +5.1663292e+02 </wgt>
<wgt id='143'> +4.9661419e+02 </wgt>
<wgt id='144'> +5.0883814e+02 </wgt>
<wgt id='145'> +5.0578439e+02 </wgt>
</rwgt>
</event>
<event>
 4      1 +5.0481800e+02 2.10535800e+02 7.54677100e-03 1.14114200e-01
        2 -1    0    0  502    0 +0.0000000000e+00 +0.0000000000e+00 +9.1189145906e+01 9.1189145906e+01 0.0000000000e+00 0.0000e+00 -1.0000e+00
       -2 -1    0    0    0  501 -0.0000000000e+00 -0.0000000000e+00 -4.9901678897e+02 4.9901678897e+02 0.0000000000e+00 0.0000e+00 1.0000e+00
        6  1    1    2  502    0 +9.6647544960e+01 -7.1102593626e+01 -2.5142650931e+02 3.2793385972e+02 1.7300000000e+02 0.0000e+00 -1.0000e+00
       -6  1    1    2    0  501 -9.6647544960e+01 +7.1102593626e+01 -1.5640113375e+02 2.6227207516e+02 1.7300000000e+02 0.0000e+00 1.0000e+00
<mgrwt>
<rscale>  2 0.21053581E+03</rscale>
<asrwt>0</asrwt>
<pdfrwt beam="1">  1        2 0.14029099E-01 0.21053581E+03</pdfrwt>
<pdfrwt beam="2">  1       -2 0.76771816E-01 0.21053581E+03</pdfrwt>
<totfact> 0.65624635E+02</totfact>
</mgrwt>
<rwgt>
<wgt id='1'> +6.0559204e+02 </wgt>
<wgt id='2'> +5.4918642e+02 </wgt>
<wgt id='3'> +5.0481800e+02 </wgt>
<wgt id='4'> +6.0559204e+02 </wgt>
<wgt id='5'> +5.0326600e+02 </wgt>
<wgt id='6'> +6.1653042e+02 </wgt>
<wgt id='7'> +5.5687493e+02 </wgt>
<wgt id='8'> +5.1016163e+02 </wgt>
<wgt id='9'> +6.1653042e+02 </wgt>
<wgt id='10'> +5.0853037e+02 </wgt>
<wgt id='11'> +6.2305656e+02 </wgt>
<wgt id='12'> +5.6100719e+02 </wgt>
<wgt id='13'> +5.1263114e+02 </wgt>
<wgt id='14'> +6.2305656e+02 </wgt>
<wgt id='15'> +5.1094429e+02 </wgt>
<wgt id='16'> +4.9586160e+02 </wgt>
<wgt id='17'> +4.5815696e+02 </wgt>
<wgt id='18'> +4.2587752e+02 </wgt>
<wgt id='19'> +4.9586161e+02 </wgt>
<wgt id='20'> +4.2467569e+02 </wgt>
<wgt id='21'> +4.6457108e+02 </wgt>
<wgt id='22'> +4.3038555e+02 </wgt>
<wgt id='23'> +5.0481800e+02 </wgt>
<wgt id='24'> +4.2911797e+02 </wgt>
<wgt id='25'> +5.1016163e+02 </wgt>
<wgt id='26'> +4.6801840e+02 </wgt>
<wgt id='27'> +4.3246888e+02 </wgt>
<wgt id='28'> +5.1016163e+02 </wgt>
<wgt id='29'> +4.3115493e+02 </wgt>
<wgt id='30'> +4.1832167e+02 </wgt>
<wgt id='31'> +3.8922642e+02 </wgt>
<wgt id='32'> +3.6405573e+02 </wgt>
<wgt id='33'> +4.1832167e+02 </wgt>
<wgt id='34'> +3.6311284e+02 </wgt>
<wgt id='35'> +4.2587752e+02 </wgt>
<wgt id='36'> +3.9467552e+02 </wgt>
<wgt id='37'> +3.6790936e+02 </wgt>
<wgt id='38'> +4.2587752e+02 </wgt>
<wgt id='39'> +3.6691115e+02 </wgt>
<wgt id='40'> +4.3038555e+02 </wgt>
<wgt id='41'> +3.9760419e+02 </wgt>
<wgt id='42'> +3.6969027e+02 </wgt>
<wgt id='43'> +4.3038555e+02 </wgt>
<wgt id='44'> +3.6865282e+02 </wgt>
<wgt id='45'> +5.0481800e+02 </wgt>
<wgt id='46'> +5.2278117e+02 </wgt>
<wgt id='47'> +4.9588518e+02 </wgt>
<wgt id='48'> +4.7930908e+02 </wgt>
<wgt id='49'> +5.3386668e+02 </wgt>
<wgt id='50'> +4.4747667e+02 </wgt>
<wgt id='51'> +4.8150219e+02 </wgt>
<wgt id='52'> +5.3309703e+02 </wgt>
<wgt id='53'> +5.3212171e+02 </wgt>
<wgt id='54'> +4.8903734e+02 </wgt>
<wgt id='55'> +4.8876945e+02 </wgt>
<wgt id='56'> +5.1504357e+02 </wgt>
<wgt id='57'> +4.4107042e+02 </wgt>
<wgt id='58'> +5.6383853e+02 </wgt>
<wgt id='59'> +5.1961185e+02 </wgt>
<wgt id='60'> +5.0643813e+02 </wgt>
<wgt id='61'> +4.6237485e+02 </wgt>
<wgt id='62'> +5.1659843e+02 </wgt>
<wgt id='63'> +5.3853563e+02 </wgt>
<wgt id='64'> +4.7755581e+02 </wgt>
<wgt id='65'> +4.6167506e+02 </wgt>
<wgt id='66'> +4.9355333e+02 </wgt>
<wgt id='67'> +5.3177493e+02 </wgt>
<wgt id='68'> +4.4805510e+02 </wgt>
<wgt id='69'> +4.7332803e+02 </wgt>
<wgt id='70'> +5.5556326e+02 </wgt>
<wgt id='71'> +4.8279710e+02 </wgt>
<wgt id='72'> +4.5994532e+02 </wgt>
<wgt id='73'> +5.3472143e+02 </wgt>
<wgt id='74'> +4.7163221e+02 </wgt>
<wgt id='75'> +4.7098051e+02 </wgt>
<wgt id='76'> +4.9879343e+02 </wgt>
<wgt id='77'> +5.2429080e+02 </wgt>
<wgt id='78'> +4.8325146e+02 </wgt>
<wgt id='79'> +5.1273991e+02 </wgt>
<wgt id='80'> +4.8850373e+02 </wgt>
<wgt id='81'> +5.2823163e+02 </wgt>
<wgt id='82'> +5.1093058e+02 </wgt>
<wgt id='83'> +4.7974251e+02 </wgt>
<wgt id='84'> +5.3379620e+02 </wgt>
<wgt id='85'> +5.1710272e+02 </wgt>
<wgt id='86'> +5.7961633e+02 </wgt>
<wgt id='87'> +5.2073538e+02 </wgt>
<wgt id='88'> +4.6963775e+02 </wgt>
<wgt id='89'> +6.4205742e+02 </wgt>
<wgt id='90'> +5.7164433e+02 </wgt>
<wgt id='91'> +4.6133212e+02 </wgt>
<wgt id='92'> +5.0907779e+02 </wgt>
<wgt id='93'> +4.9935915e+02 </wgt>
<wgt id='94'> +5.3838366e+02 </wgt>
<wgt id='95'> +4.8382901e+02 </wgt>
<wgt id='96'> +5.0181051e+02 </wgt>
<wgt id='97'> +5.0903124e+02 </wgt>
<wgt id='98'> +5.1515394e+02 </wgt>
<wgt id='99'> +5.4164965e+02 </wgt>
<wgt id='100'> +4.4858069e+02 </wgt>
<wgt id='101'> +4.9897593e+02 </wgt>
<wgt id='102'> +5.1217997e+02 </wgt>
<wgt id='103'> +5.4793500e+02 </wgt>
<wgt id='104'> +4.8935850e+02 </wgt>
<wgt id='105'> +4.9396826e+02 </wgt>
<wgt id='106'> +5.0556872e+02 </wgt>
<wgt id='107'> +5.1321834e+02 </wgt>
<wgt id='108'> +4.7999949e+02 </wgt>
<wgt id='109'> +5.1157094e+02 </wgt>
<wgt id='110'> +5.2484693e+02 </wgt>
<wgt id='111'> +4.8711741e+02 </wgt>
<wgt id='112'> +4.4694872e+02 </wgt>
<wgt id='113'> +5.0307367e+02 </wgt>
<wgt id='114'> +5.0064346e+02 </wgt>
<wgt id='115'> +4.5305234e+02 </wgt>
<wgt id='116'> +5.0782576e+02 </wgt>
<wgt id='117'> +4.7377314e+02 </wgt>
<wgt id='118'> +5.0146470e+02 </wgt>
<wgt id='119'> +5.4237340e+02 </wgt>
<wgt id='120'> +4.9790125e+02 </wgt>
<wgt id='121'> +5.1534949e+02 </wgt>
<wgt id='122'> +5.0837581e+02 </wgt>
<wgt id='123'> +5.2069637e+02 </wgt>
<wgt id='124'> +4.8549842e+02 </wgt>
<wgt id='125'> +4.5731423e+02 </wgt>
<wgt id='126'> +5.2418409e+02 </wgt>
<wgt id='127'> +5.3944268e+02 </wgt>
<wgt id='128'> +5.0768489e+02 </wgt>
<wgt id='129'> +5.1165699e+02 </wgt>
<wgt id='130'> +4.3977844e+02 </wgt>
<wgt id='131'> +5.3216788e+02 </wgt>
<wgt id='132'> +4.9522921e+02 </wgt>
<wgt id='133'> +6.1940150e+02 </wgt>
<wgt id='134'> +4.5310672e+02 </wgt>
<wgt id='135'> +4.6825861e+02 </wgt>
<wgt id='136'> +5.2812846e+02 </wgt>
<wgt id='137'> +5.1571332e+02 </wgt>
<wgt id='138'> +4.9123360e+02 </wgt>
<wgt id='139'> +5.9328807e+02 </wgt>
<wgt id='140'> +4.5314525e+02 </wgt>
<wgt id='141'> +4.9939501e+02 </wgt>
<wgt id='142'> +4.6357236e+02 </wgt>
<wgt id='143'> +5.1641247e+02 </wgt>
<wgt id='144'> +5.0866673e+02 </wgt>
<wgt id='145'> +5.3915483e+02 </wgt>
</rwgt>
</event>
<event>
 4      1 +5.0481800e+02 2.07296200e+02 7.54677100e-03 1.14372500e-01
       21 -1    0    0  503  502 +0.0000000000e+00 +0.0000000000e+00 +2.0140881649e+03 2.0140881649e+03 0.0000000000e+00 0.0000e+00 -1.0000e+00
       21 -1    0    0  501  503 -0.0000000000e+00 -0.0000000000e+00 -7.4727737743e+01 7.4727737743e+01 0.0000000000e+00 0.0000e+00 -1.0000e+00
        6  1    1    2  501    0 +6.4673347452e+01 +9.4128021498e+01 +8.6868647753e+01 2.2476184788e+02 1.7300000000e+02 0.0000e+00 -1.0000e+00
       -6  1    1    2    0  502 -6.4673347452e+01 -9.4128021498e+01 +1.8524917794e+03 1.8640540547e+03 1.7300000000e+02 0.0000e+00 -1.0000e+00
<mgrwt>
<rscale>  2 0.20729623E+03</rscale>
<asrwt>0</asrwt>
<pdfrwt beam="1">  1       21 0.30985968E+00 0.20729623E+03</pdfrwt>
<pdfrwt beam="2">  1       21 0.11496577E-01 0.20729623E+03</pdfrwt>
<totfact> 0.18628187E+03</totfact>
</mgrwt>
<rwgt>
<wgt id='1'> +7.3054882e+02 </wgt>
<wgt id='2'> +6.0447139e+02 </wgt>
<wgt id='3'> +5.0481800e+02 </wgt>
<wgt id='4'> +7.3054882e+02 </wgt>
<wgt id='5'> +3.7024668e+02 </wgt>
<wgt id='6'> +6.1707083e+02 </wgt>
<wgt id='7'> +5.0870312e+02 </wgt>
<wgt id='8'> +4.2533435e+02 </wgt>
<wgt id='9'> +6.1707083e+02 </wgt>
<wgt id='10'> +3.1508467e+02 </wgt>
<wgt id='11'> +5.1991296e+02 </wgt>
<wgt id='12'> +4.3105776e+02 </wgt>
<wgt id='13'> +3.6233420e+02 </wgt>
<wgt id='14'> +5.1991296e+02 </wgt>
<wgt id='15'> +2.7088991e+02 </wgt>
<wgt id='16'> +5.9765293e+02 </wgt>
<wgt id='17'> +5.0366570e+02 </wgt>
<wgt id='18'> +4.2574595e+02 </wgt>
<wgt id='19'> +5.9765294e+02 </wgt>
<wgt id='20'> +3.1603414e+02 </wgt>
<wgt id='21'> +4.2386839e+02 </wgt>
<wgt id='22'> +3.5871220e+02 </wgt>
<wgt id='23'> +5.0481800e+02 </wgt>
<wgt id='24'> +2.6894909e+02 </wgt>
<wgt id='25'> +4.2533435e+02 </wgt>
<wgt id='26'> +3.5917169e+02 </wgt>
<wgt id='27'> +3.0558006e+02 </wgt>
<wgt id='28'> +4.2533435e+02 </wgt>
<wgt id='29'> +2.3122546e+02 </wgt>
<wgt id='30'> +5.0403971e+02 </wgt>
<wgt id='31'> +4.2768774e+02 </wgt>
<wgt id='32'> +3.6384260e+02 </wgt>
<wgt id='33'> +5.0403971e+02 </wgt>
<wgt id='34'> +2.7291277e+02 </wgt>
<wgt id='35'> +4.2574595e+02 </wgt>
<wgt id='36'> +3.5992785e+02 </wgt>
<wgt id='37'> +3.0655554e+02 </wgt>
<wgt id='38'> +4.2574595e+02 </wgt>
<wgt id='39'> +2.3225226e+02 </wgt>
<wgt id='40'> +3.5871220e+02 </wgt>
<wgt id='41'> +3.0499064e+02 </wgt>
<wgt id='42'> +2.6114880e+02 </wgt>
<wgt id='43'> +3.5871220e+02 </wgt>
<wgt id='44'> +1.9967583e+02 </wgt>
<wgt id='45'> +5.0481800e+02 </wgt>
<wgt id='46'> +5.1096106e+02 </wgt>
<wgt id='47'> +6.0289139e+02 </wgt>
<wgt id='48'> +5.0733015e+02 </wgt>
<wgt id='49'> +4.3793420e+02 </wgt>
<wgt id='50'> +6.2200323e+02 </wgt>
<wgt id='51'> +4.7809970e+02 </wgt>
<wgt id='52'> +4.0668622e+02 </wgt>
<wgt id='53'> +5.6481018e+02 </wgt>
<wgt id='54'> +5.3793308e+02 </wgt>
<wgt id='55'> +6.2648950e+02 </wgt>
<wgt id='56'> +4.8693324e+02 </wgt>
<wgt id='57'> +5.5111819e+02 </wgt>
<wgt id='58'> +4.1672203e+02 </wgt>
<wgt id='59'> +5.4569867e+02 </wgt>
<wgt id='60'> +4.7699054e+02 </wgt>
<wgt id='61'> +3.8145724e+02 </wgt>
<wgt id='62'> +4.2845414e+02 </wgt>
<wgt id='63'> +5.3865610e+02 </wgt>
<wgt id='64'> +5.0581692e+02 </wgt>
<wgt id='65'> +3.9220273e+02 </wgt>
<wgt id='66'> +5.2336948e+02 </wgt>
<wgt id='67'> +4.9465878e+02 </wgt>
<wgt id='68'> +7.5956107e+02 </wgt>
<wgt id='69'> +6.1254406e+02 </wgt>
<wgt id='70'> +6.7046163e+02 </wgt>
<wgt id='71'> +4.2786643e+02 </wgt>
<wgt id='72'> +4.0292978e+02 </wgt>
<wgt id='73'> +4.2995166e+02 </wgt>
<wgt id='74'> +6.8017552e+02 </wgt>
<wgt id='75'> +6.4801294e+02 </wgt>
<wgt id='76'> +5.1164118e+02 </wgt>
<wgt id='77'> +4.2797678e+02 </wgt>
<wgt id='78'> +4.0322211e+02 </wgt>
<wgt id='79'> +5.8241981e+02 </wgt>
<wgt id='80'> +3.8031176e+02 </wgt>
<wgt id='81'> +5.6175068e+02 </wgt>
<wgt id='82'> +4.9842088e+02 </wgt>
<wgt id='83'> +5.0891204e+02 </wgt>
<wgt id='84'> +4.4211074e+02 </wgt>
<wgt id='85'> +4.1567908e+02 </wgt>
<wgt id='86'> +5.6717264e+02 </wgt>
<wgt id='87'> +4.6984599e+02 </wgt>
<wgt id='88'> +5.4389992e+02 </wgt>
<wgt id='89'> +3.1040883e+02 </wgt>
<wgt id='90'> +4.0211070e+02 </wgt>
<wgt id='91'> +3.7135825e+02 </wgt>
<wgt id='92'> +4.6870997e+02 </wgt>
<wgt id='93'> +5.3390378e+02 </wgt>
<wgt id='94'> +4.3201618e+02 </wgt>
<wgt id='95'> +5.1989648e+02 </wgt>
<wgt id='96'> +5.1172791e+02 </wgt>
<wgt id='97'> +4.1852562e+02 </wgt>
<wgt id='98'> +6.2784004e+02 </wgt>
<wgt id='99'> +3.6943285e+02 </wgt>
<wgt id='100'> +3.1204652e+02 </wgt>
<wgt id='101'> +6.2200094e+02 </wgt>
<wgt id='102'> +6.0475633e+02 </wgt>
<wgt id='103'> +4.2337430e+02 </wgt>
<wgt id='104'> +5.7773937e+02 </wgt>
<wgt id='105'> +5.1703306e+02 </wgt>
<wgt id='106'> +5.1444983e+02 </wgt>
<wgt id='107'> +5.2687805e+02 </wgt>
<wgt id='108'> +4.5903720e+02 </wgt>
<wgt id='109'> +5.0435528e+02 </wgt>
<wgt id='110'> +3.9364652e+02 </wgt>
<wgt id='111'> +4.6991128e+02 </wgt>
<wgt id='112'> +5.2153953e+02 </wgt>
<wgt id='113'> +6.2317861e+02 </wgt>
<wgt id='114'> +4.7206386e+02 </wgt>
<wgt id='115'> +4.8750467e+02 </wgt>
<wgt id='116'> +5.9004111e+02 </wgt>
<wgt id='117'> +5.2346404e+02 </wgt>
<wgt id='118'> +5.0016164e+02 </wgt>
<wgt id='119'> +5.4980457e+02 </wgt>
<wgt id='120'> +4.9306429e+02 </wgt>
<wgt id='121'> +4.5201494e+02 </wgt>
<wgt id='122'> +4.7047819e+02 </wgt>
<wgt id='123'> +4.4387957e+02 </wgt>
<wgt id='124'> +5.7113560e+02 </wgt>
<wgt id='125'> +7.5389755e+02 </wgt>
<wgt id='126'> +4.7596952e+02 </wgt>
<wgt id='127'> +4.5044825e+02 </wgt>
<wgt id='128'> +5.0597219e+02 </wgt>
<wgt id='129'> +4.7529774e+02 </wgt>
<wgt id='130'> +4.9160594e+02 </wgt>
<wgt id='131'> +4.2383559e+02 </wgt>
<wgt id='132'> +5.3206258e+02 </wgt>
<wgt id='133'> +5.6667812e+02 </wgt>
<wgt id='134'> +5.7133685e+02 </wgt>
<wgt id='135'> +4.6874807e+02 </wgt>
<wgt id='136'> +6.2650918e+02 </wgt>
<wgt id='137'> +6.1266010e+02 </wgt>
<wgt id='138'> +5.7131863e+02 </wgt>
<wgt id='139'> +5.3003192e+02 </wgt>
<wgt id='140'> +4.8389879e+02 </wgt>
<wgt id='141'> +6.8575171e+02 </wgt>
<wgt id='142'> +2.1823580e+02 </wgt>
<wgt id='143'> +5.0901055e+02 </wgt>
<wgt id='144'> +4.2403589e+02 </wgt>
<wgt id='145'> +4.5164704e+02 </wgt>
</rwgt>
</event>
<event>
 4      1 +5.0481800e+02 1.76016500e+02 7.54677100e-03 1.17171500e-01
       21 -1    0    0  501  502 +0.0000000000e+00 +0.0000000000e+00 +3.1107418006e+01 3.1107418006e+01 0.0000000000e+00 0.0000e+00 -1.0000e+00
       21 -1    0    0  502  503 -0.0000000000e+00 -0.0000000000e+00 -9.9737617689e+02 9.9737617689e+02 0.0000000000e+00 0.0000e+00 -1.0000e+00
        6  1    1    2  501    0 -4.9163488055e+00 +3.2072352602e+01 -5.0249813428e+02 5.3243420367e+02 1.7300000000e+02 0.0000e+00 -1.0000e+00
       -6  1    1    2    0  503 +4.9163488055e+00 -3.2072352602e+01 -4.6377062461e+02 4.9604939123e+02 1.7300000000e+02 0.0000e+00 -1.0000e+00
<mgrwt>
<rscale>  2 0.17601649E+03</rscale>
<asrwt>0</asrwt>
<pdfrwt beam="1">  1       21 0.47857569E-02 0.17601649E+03</pdfrwt>
<pdfrwt beam="2">  1       21 0.15344248E+00 0.17601649E+03</pdfrwt>
<totfact> 0.82251157E+04</totfact>
</mgrwt>
<rwgt>
<wgt id='1'> +6.5611960e+02 </wgt>
<wgt id='2'> +9.5835202e+02 </wgt>
<wgt id='3'> +5.0481800e+02 </wgt>
<wgt id='4'> +6.5611959e+02 </wgt>
<wgt id='5'> +5.0468665e+02 </wgt>
<wgt id='6'> +6.2210416e+02 </wgt>
<wgt id='7'> +9.2222933e+02 </wgt>
<wgt id='8'> +4.6952870e+02 </wgt>
<wgt id='9'> +6.2210415e+02 </wgt>
<wgt id='10'> +4.6940207e+02 </wgt>
<wgt id='11'> +5.7861598e+02 </wgt>
<wgt id='12'> +8.7756409e+02 </wgt>
<wgt id='13'> +4.3614538e+02 </wgt>
<wgt id='14'> +5.7861598e+02 </wgt>
<wgt id='15'> +4.3602781e+02 </wgt>
<wgt id='16'> +5.3242046e+02 </wgt>
<wgt id='17'> +7.5049760e+02 </wgt>
<wgt id='18'> +4.2384084e+02 </wgt>
<wgt id='19'> +5.3242046e+02 </wgt>
<wgt id='20'> +4.2374058e+02 </wgt>
<wgt id='21'> +7.2220947e+02 </wgt>
<wgt id='22'> +3.9421225e+02 </wgt>
<wgt id='23'> +5.0481800e+02 </wgt>
<wgt id='24'> +3.9411526e+02 </wgt>
<wgt id='25'> +4.6952871e+02 </wgt>
<wgt id='26'> +6.8723155e+02 </wgt>
<wgt id='27'> +3.6618390e+02 </wgt>
<wgt id='28'> +4.6952870e+02 </wgt>
<wgt id='29'> +3.6609385e+02 </wgt>
<wgt id='30'> +4.4701563e+02 </wgt>
<wgt id='31'> +6.0357875e+02 </wgt>
<wgt id='32'> +3.6114073e+02 </wgt>
<wgt id='33'> +4.4701562e+02 </wgt>
<wgt id='34'> +3.6106004e+02 </wgt>
<wgt id='35'> +4.2384084e+02 </wgt>
<wgt id='36'> +5.8082836e+02 </wgt>
<wgt id='37'> +3.3589520e+02 </wgt>
<wgt id='38'> +4.2384084e+02 </wgt>
<wgt id='39'> +3.3581695e+02 </wgt>
<wgt id='40'> +3.9421225e+02 </wgt>
<wgt id='41'> +5.5269779e+02 </wgt>
<wgt id='42'> +3.1201316e+02 </wgt>
<wgt id='43'> +3.9421225e+02 </wgt>
<wgt id='44'> +3.1194053e+02 </wgt>
<wgt id='45'> +5.0481800e+02 </wgt>
<wgt id='46'> +5.1874079e+02 </wgt>
<wgt id='47'> +5.1386205e+02 </wgt>
<wgt id='48'> +5.0474242e+02 </wgt>
<wgt id='49'> +4.8162931e+02 </wgt>
<wgt id='50'> +5.8489279e+02 </wgt>
<wgt id='51'> +4.8381594e+02 </wgt>
<wgt id='52'> +4.9214689e+02 </wgt>
<wgt id='53'> +4.9678316e+02 </wgt>
<wgt id='54'> +5.2610933e+02 </wgt>
<wgt id='55'> +5.3043321e+02 </wgt>
<wgt id='56'> +4.7409092e+02 </wgt>
<wgt id='57'> +5.2729994e+02 </wgt>
<wgt id='58'> +4.7724414e+02 </wgt>
<wgt id='59'> +5.4354151e+02 </wgt>
<wgt id='60'> +5.1439649e+02 </wgt>
<wgt id='61'> +4.5118221e+02 </wgt>
<wgt id='62'> +4.8146093e+02 </wgt>
<wgt id='63'> +5.2015157e+02 </wgt>
<wgt id='64'> +5.0306731e+02 </wgt>
<wgt id='65'> +4.9714672e+02 </wgt>
<wgt id='66'> +5.0287821e+02 </wgt>
<wgt id='67'> +5.0625041e+02 </wgt>
<wgt id='68'> +5.7792341e+02 </wgt>
<wgt id='69'> +5.1954661e+02 </wgt>
<wgt id='70'> +5.1708536e+02 </wgt>
<wgt id='71'> +4.8956494e+02 </wgt>
<wgt id='72'> +4.8217604e+02 </wgt>
<wgt id='73'> +4.7366613e+02 </wgt>
<wgt id='74'> +5.5285888e+02 </wgt>
<wgt id='75'> +5.2634980e+02 </wgt>
<wgt id='76'> +5.1230336e+02 </wgt>
<wgt id='77'> +4.9176876e+02 </wgt>
<wgt id='78'> +4.5677156e+02 </wgt>
<wgt id='79'> +5.2223996e+02 </wgt>
<wgt id='80'> +4.7009482e+02 </wgt>
<wgt id='81'> +5.0795064e+02 </wgt>
<wgt id='82'> +4.8680246e+02 </wgt>
<wgt id='83'> +4.9831825e+02 </wgt>
<wgt id='84'> +5.0916125e+02 </wgt>
<wgt id='85'> +4.8184642e+02 </wgt>
<wgt id='86'> +5.1600466e+02 </wgt>
<wgt id='87'> +5.0511680e+02 </wgt>
<wgt id='88'> +4.9268012e+02 </wgt>
<wgt id='89'> +4.7501141e+02 </wgt>
<wgt id='90'> +4.9734083e+02 </wgt>
<wgt id='91'> +4.7532219e+02 </wgt>
<wgt id='92'> +4.7234154e+02 </wgt>
<wgt id='93'> +5.0741779e+02 </wgt>
<wgt id='94'> +4.7634102e+02 </wgt>
<wgt id='95'> +5.2244518e+02 </wgt>
<wgt id='96'> +5.2549872e+02 </wgt>
<wgt id='97'> +4.7703723e+02 </wgt>
<wgt id='98'> +5.1738465e+02 </wgt>
<wgt id='99'> +4.5414607e+02 </wgt>
<wgt id='100'> +4.2836011e+02 </wgt>
<wgt id='101'> +5.7357197e+02 </wgt>
<wgt id='102'> +5.4712337e+02 </wgt>
<wgt id='103'> +5.1080225e+02 </wgt>
<wgt id='104'> +5.2118694e+02 </wgt>
<wgt id='105'> +5.1913253e+02 </wgt>
<wgt id='106'> +4.8012308e+02 </wgt>
<wgt id='107'> +4.8231163e+02 </wgt>
<wgt id='108'> +4.6339876e+02 </wgt>
<wgt id='109'> +4.9345348e+02 </wgt>
<wgt id='110'> +4.8574695e+02 </wgt>
<wgt id='111'> +4.9346594e+02 </wgt>
<wgt id='112'> +5.0511621e+02 </wgt>
<wgt id='113'> +5.0091996e+02 </wgt>
<wgt id='114'> +5.1101311e+02 </wgt>
<wgt id='115'> +4.6427220e+02 </wgt>
<wgt id='116'> +5.3763252e+02 </wgt>
<wgt id='117'> +4.9224602e+02 </wgt>
<wgt id='118'> +5.2598802e+02 </wgt>
<wgt id='119'> +5.2623887e+02 </wgt>
<wgt id='120'> +4.9999331e+02 </wgt>
<wgt id='121'> +5.0455409e+02 </wgt>
<wgt id='122'> +4.9884719e+02 </wgt>
<wgt id='123'> +4.9372366e+02 </wgt>
<wgt id='124'> +5.6337606e+02 </wgt>
<wgt id='125'> +5.9385967e+02 </wgt>
<wgt id='126'> +5.0489658e+02 </wgt>
<wgt id='127'> +5.0002710e+02 </wgt>
<wgt id='128'> +4.7041783e+02 </wgt>
<wgt id='129'> +5.3537873e+02 </wgt>
<wgt id='130'> +4.8319215e+02 </wgt>
<wgt id='131'> +4.9144625e+02 </wgt>
<wgt id='132'> +5.5070721e+02 </wgt>
<wgt id='133'> +5.3685164e+02 </wgt>
<wgt id='134'> +5.1578364e+02 </wgt>
<wgt id='135'> +4.9596608e+02 </wgt>
<wgt id='136'> +5.6887760e+02 </wgt>
<wgt id='137'> +5.0321868e+02 </wgt>
<wgt id='138'> +4.9514086e+02 </wgt>
<wgt id='139'> +5.2097399e+02 </wgt>
<wgt id='140'> +5.0072612e+02 </wgt>
<wgt id='141'> +5.3830582e+02 </wgt>
<wgt id='142'> +4.1697838e+02 </wgt>
<wgt id='143'> +5.2128635e+02 </wgt>
<wgt id='144'> +4.7811085e+02 </wgt>
<wgt id='145'> +4.8070173e+02 </wgt>
</rwgt>
</event>
<event>
 4      1 +5.0481800e+02 1.94023900e+02 7.54677100e-03 1.15488100e-01
       21 -1    0    0  501  502 +0.0000000000e+00 +0.0000000000e+00 +6.9796055215e+02 6.9796055215e+02 0.0000000000e+00 0.0000e+00 -1.0000e+00
       21 -1    0    0  502  503 -0.0000000000e+00 -0.0000000000e+00 -5.4134664311e+01 5.4134664311e+01 0.0000000000e+00 0.0000e+00 -1.0000e+00
        6  1    1    2  501    0 -2.1784079430e+01 -8.5098371202e+01 +2.9913880449e+02 3.5655196430e+02 1.7300000000e+02 0.0000e+00 -1.0000e+00
       -6  1    1    2    0  503 +2.1784079430e+01 +8.5098371202e+01 +3.4468708335e+02 3.9554325216e+02 1.7300000000e+02 0.0000e+00 -1.0000e+00
<mgrwt>
<rscale>  2 0.19402391E+03</rscale>
<asrwt>0</asrwt>
<pdfrwt beam="1">  1       21 0.10737854E+00 0.19402391E+03</pdfrwt>
<pdfrwt beam="2">  1       21 0.83284104E-02 0.19402391E+03</pdfrwt>
<totfact> 0.77404017E+04</totfact>
</mgrwt>
<rwgt>
<wgt id='1'> +6.5003522e+02 </wgt>
<wgt id='2'> +6.4492840e+02 </wgt>
<wgt id='3'> +5.0481800e+02 </wgt>
<wgt id='4'> +6.5003522e+02 </wgt>
<wgt id='5'> +5.0448975e+02 </wgt>
<wgt id='6'> +6.1925764e+02 </wgt>
<wgt id='7'> +6.1401871e+02 </wgt>
<wgt id='8'> +4.7233466e+02 </wgt>
<wgt id='9'> +6.1925764e+02 </wgt>
<wgt id='10'> +4.7202130e+02 </wgt>
<wgt id='11'> +5.7941050e+02 </wgt>
<wgt id='12'> +5.7443580e+02 </wgt>
<wgt id='13'> +4.4167428e+02 </wgt>
<wgt id='14'> +5.7941049e+02 </wgt>
<wgt id='15'> +4.4138117e+02 </wgt>
<wgt id='16'> +5.2990784e+02 </wgt>
<wgt id='17'> +5.2630746e+02 </wgt>
<wgt id='18'> +4.2509024e+02 </wgt>
<wgt id='19'> +5.2990784e+02 </wgt>
<wgt id='20'> +4.2483485e+02 </wgt>
<wgt id='21'> +5.0108295e+02 </wgt>
<wgt id='22'> +3.9773711e+02 </wgt>
<wgt id='23'> +5.0481800e+02 </wgt>
<wgt id='24'> +3.9749291e+02 </wgt>
<wgt id='25'> +4.7233466e+02 </wgt>
<wgt id='26'> +4.6878048e+02 </wgt>
<wgt id='27'> +3.7191904e+02 </wgt>
<wgt id='28'> +4.7233466e+02 </wgt>
<wgt id='29'> +3.7169061e+02 </wgt>
<wgt id='30'> +4.4621755e+02 </wgt>
<wgt id='31'> +4.4342500e+02 </wgt>
<wgt id='32'> +3.6284893e+02 </wgt>
<wgt id='33'> +4.4621755e+02 </wgt>
<wgt id='34'> +3.6264300e+02 </wgt>
<wgt id='35'> +4.2509024e+02 </wgt>
<wgt id='36'> +4.2217283e+02 </wgt>
<wgt id='37'> +3.3950082e+02 </wgt>
<wgt id='38'> +4.2509024e+02 </wgt>
<wgt id='39'> +3.3930366e+02 </wgt>
<wgt id='40'> +3.9773711e+02 </wgt>
<wgt id='41'> +3.9495732e+02 </wgt>
<wgt id='42'> +3.1746301e+02 </wgt>
<wgt id='43'> +3.9773711e+02 </wgt>
<wgt id='44'> +3.1727858e+02 </wgt>
<wgt id='45'> +5.0481800e+02 </wgt>
<wgt id='46'> +5.1476332e+02 </wgt>
<wgt id='47'> +5.1697592e+02 </wgt>
<wgt id='48'> +5.0635154e+02 </wgt>
<wgt id='49'> +4.9453624e+02 </wgt>
<wgt id='50'> +5.8956681e+02 </wgt>
<wgt id='51'> +4.9123203e+02 </wgt>
<wgt id='52'> +5.0238568e+02 </wgt>
<wgt id='53'> +4.9820042e+02 </wgt>
<wgt id='54'> +5.1498599e+02 </wgt>
<wgt id='55'> +4.8944280e+02 </wgt>
<wgt id='56'> +4.6613354e+02 </wgt>
<wgt id='57'> +5.1111683e+02 </wgt>
<wgt id='58'> +4.9343532e+02 </wgt>
<wgt id='59'> +5.2639501e+02 </wgt>
<wgt id='60'> +5.0650664e+02 </wgt>
<wgt id='61'> +4.4553501e+02 </wgt>
<wgt id='62'> +4.9284984e+02 </wgt>
<wgt id='63'> +5.0927501e+02 </wgt>
<wgt id='64'> +4.9816530e+02 </wgt>
<wgt id='65'> +5.4458984e+02 </wgt>
<wgt id='66'> +4.9729520e+02 </wgt>
<wgt id='67'> +5.0729881e+02 </wgt>
<wgt id='68'> +5.5662717e+02 </wgt>
<wgt id='69'> +5.0396110e+02 </wgt>
<wgt id='70'> +5.0220641e+02 </wgt>
<wgt id='71'> +5.0607739e+02 </wgt>
<wgt id='72'> +4.8919768e+02 </wgt>
<wgt id='73'> +4.8761598e+02 </wgt>
<wgt id='74'> +5.3467572e+02 </wgt>
<wgt id='75'> +5.1655310e+02 </wgt>
<wgt id='76'> +5.0196925e+02 </wgt>
<wgt id='77'> +4.9473809e+02 </wgt>
<wgt id='78'> +4.7965657e+02 </wgt>
<wgt id='79'> +5.0311716e+02 </wgt>
<wgt id='80'> +4.8847173e+02 </wgt>
<wgt id='81'> +4.9855560e+02 </wgt>
<wgt id='82'> +4.9525097e+02 </wgt>
<wgt id='83'> +5.0657507e+02 </wgt>
<wgt id='84'> +5.3253133e+02 </wgt>
<wgt id='85'> +5.0724169e+02 </wgt>
<wgt id='86'> +5.0769434e+02 </wgt>
<wgt id='87'> +5.0735839e+02 </wgt>
<wgt id='88'> +5.0320899e+02 </wgt>
<wgt id='89'> +5.0424053e+02 </wgt>
<wgt id='90'> +5.1141500e+02 </wgt>
<wgt id='91'> +5.0879649e+02 </wgt>
<wgt id='92'> +4.6816394e+02 </wgt>
<wgt id='93'> +5.0287833e+02 </wgt>
<wgt id='94'> +4.8958948e+02 </wgt>
<wgt id='95'> +5.0455309e+02 </wgt>
<wgt id='96'> +5.3347394e+02 </wgt>
<wgt id='97'> +4.9576180e+02 </wgt>
<wgt id='98'> +4.9845707e+02 </wgt>
<wgt id='99'> +4.7593085e+02 </wgt>
<wgt id='100'> +4.6648580e+02 </wgt>
<wgt id='101'> +5.5598572e+02 </wgt>
<wgt id='102'> +5.2178921e+02 </wgt>
<wgt id='103'> +5.3470350e+02 </wgt>
<wgt id='104'> +5.0995886e+02 </wgt>
<wgt id='105'> +5.2140037e+02 </wgt>
<wgt id='106'> +4.6839749e+02 </wgt>
<wgt id='107'> +4.8439779e+02 </wgt>
<wgt id='108'> +4.5339056e+02 </wgt>
<wgt id='109'> +4.8182966e+02 </wgt>
<wgt id='110'> +4.9882351e+02 </wgt>
<wgt id='111'> +4.9288835e+02 </wgt>
<wgt id='112'> +4.8522989e+02 </wgt>
<wgt id='113'> +4.7684402e+02 </wgt>
<wgt id='114'> +4.9969036e+02 </wgt>
<wgt id='115'> +4.7729232e+02 </wgt>
<wgt id='116'> +5.2213672e+02 </wgt>
<wgt id='117'> +4.9788641e+02 </wgt>
<wgt id='118'> +5.2606269e+02 </wgt>
<wgt id='119'> +5.0065317e+02 </wgt>
<wgt id='120'> +4.9459452e+02 </wgt>
<wgt id='121'> +4.9928601e+02 </wgt>
<wgt id='122'> +4.9972445e+02 </wgt>
<wgt id='123'> +5.0409955e+02 </wgt>
<wgt id='124'> +5.5504145e+02 </wgt>
<wgt id='125'> +5.6461785e+02 </wgt>
<wgt id='126'> +5.1551211e+02 </wgt>
<wgt id='127'> +5.1326498e+02 </wgt>
<wgt id='128'> +4.6265521e+02 </wgt>
<wgt id='129'> +5.5665682e+02 </wgt>
<wgt id='130'> +4.9628157e+02 </wgt>
<wgt id='131'> +5.1869892e+02 </wgt>
<wgt id='132'> +5.3307841e+02 </wgt>
<wgt id='133'> +5.2035304e+02 </wgt>
<wgt id='134'> +4.9667221e+02 </wgt>
<wgt id='135'> +5.0849855e+02 </wgt>
<wgt id='136'> +5.2966063e+02 </wgt>
<wgt id='137'> +4.8697364e+02 </wgt>
<wgt id='138'> +4.7656812e+02 </wgt>
<wgt id='139'> +5.1935633e+02 </wgt>
<wgt id='140'> +5.1571565e+02 </wgt>
<wgt id='141'> +5.1666493e+02 </wgt>
<wgt id='142'> +4.6916997e+02 </wgt>
<wgt id='143'> +5.1615005e+02 </wgt>
<wgt id='144'> +4.9340428e+02 </wgt>
<wgt id='145'> +4.9701911e+02 </wgt>
</rwgt>
</event>
<event>
 4      1 +5.0481800e+02 2.03596500e+02 7.54677100e-03 1.14674000e-01
       21 -1    0    0  501  502 +0.0000000000e+00 +0.0000000000e+00 +6.9946563212e+02 6.9946563212e+02 0.0000000000e+00 0.0000e+00 -1.0000e+00
       21 -1    0    0  502  503 -0.0000000000e+00 -0.0000000000e+00 -5.9403336979e+01 5.9403336979e+01 0.0000000000e+00 0.0000e+00 1.0000e+00
        6  1    1    2  501    0 +5.2620002806e+01 +9.3561116250e+01 +3.3855645912e+02 3.9505951853e+02 1.7300000000e+02 0.0000e+00 1.0000e+00
       -6  1    1    2    0  503 -5.2620002806e+01 -9.3561116250e+01 +3.0150583602e+02 3.6380945057e+02 1.7300000000e+02 0.0000e+00 1.0000e+00
<mgrwt>
<rscale>  2 0.20359653E+03</rscale>
<asrwt>0</asrwt>
<pdfrwt beam="1">  1       21 0.10761009E+00 0.20359653E+03</pdfrwt>
<pdfrwt beam="2">  1       21 0.91389754E-02 0.20359653E+03</pdfrwt>
<totfact> 0.65138662E+04</totfact>
</mgrwt>
<rwgt>
<wgt id='1'> +6.5123274e+02 </wgt>
<wgt id='2'> +6.1078531e+02 </wgt>
<wgt id='3'> +5.0481800e+02 </wgt>
<wgt id='4'> +6.5123273e+02 </wgt>
<wgt id='5'> +5.0460339e+02 </wgt>
<wgt id='6'> +6.1769066e+02 </wgt>
<wgt id='7'> +5.7615758e+02 </wgt>
<wgt id='8'> +4.7101350e+02 </wgt>
<wgt id='9'> +6.1769066e+02 </wgt>
<wgt id='10'> +4.7081219e+02 </wgt>
<wgt id='11'> +5.7632779e+02 </wgt>
<wgt id='12'> +5.3757072e+02 </wgt>
<wgt id='13'> +4.3942172e+02 </wgt>
<wgt id='14'> +5.7632779e+02 </wgt>
<wgt id='15'> +4.3923409e+02 </wgt>
<wgt id='16'> +5.3223082e+02 </wgt>
<wgt id='17'> +5.0384510e+02 </wgt>
<wgt id='18'> +4.2558522e+02 </wgt>
<wgt id='19'> +5.3223082e+02 </wgt>
<wgt id='20'> +4.2541526e+02 </wgt>
<wgt id='21'> +4.7528021e+02 </wgt>
<wgt id='22'> +3.9708644e+02 </wgt>
<wgt id='23'> +5.0481800e+02 </wgt>
<wgt id='24'> +3.9692697e+02 </wgt>
<wgt id='25'> +4.7101350e+02 </wgt>
<wgt id='26'> +4.4344939e+02 </wgt>
<wgt id='27'> +3.7045310e+02 </wgt>
<wgt id='28'> +4.7101350e+02 </wgt>
<wgt id='29'> +3.7030446e+02 </wgt>
<wgt id='30'> +4.4869551e+02 </wgt>
<wgt id='31'> +4.2619012e+02 </wgt>
<wgt id='32'> +3.6358751e+02 </wgt>
<wgt id='33'> +4.4869551e+02 </wgt>
<wgt id='34'> +3.6345012e+02 </wgt>
<wgt id='35'> +4.2558522e+02 </wgt>
<wgt id='36'> +4.0202779e+02 </wgt>
<wgt id='37'> +3.3924033e+02 </wgt>
<wgt id='38'> +4.2558522e+02 </wgt>
<wgt id='39'> +3.3911138e+02 </wgt>
<wgt id='40'> +3.9708644e+02 </wgt>
<wgt id='41'> +3.7510288e+02 </wgt>
<wgt id='42'> +3.1648683e+02 </wgt>
<wgt id='43'> +3.9708644e+02 </wgt>
<wgt id='44'> +3.1636665e+02 </wgt>
<wgt id='45'> +5.0481800e+02 </wgt>
<wgt id='46'> +5.1497765e+02 </wgt>
<wgt id='47'> +5.1761206e+02 </wgt>
<wgt id='48'> +5.0655889e+02 </wgt>
<wgt id='49'> +4.9419134e+02 </wgt>
<wgt id='50'> +5.9153851e+02 </wgt>
<wgt id='51'> +4.9104123e+02 </wgt>
<wgt id='52'> +5.0207803e+02 </wgt>
<wgt id='53'> +4.9845168e+02 </wgt>
<wgt id='54'> +5.1515541e+02 </wgt>
<wgt id='55'> +4.8906240e+02 </wgt>
<wgt id='56'> +4.6563001e+02 </wgt>
<wgt id='57'> +5.1102882e+02 </wgt>
<wgt id='58'> +4.9270312e+02 </wgt>
<wgt id='59'> +5.2634755e+02 </wgt>
<wgt id='60'> +5.0578384e+02 </wgt>
<wgt id='61'> +4.4524682e+02 </wgt>
<wgt id='62'> +4.9265288e+02 </wgt>
<wgt id='63'> +5.0932793e+02 </wgt>
<wgt id='64'> +4.9788202e+02 </wgt>
<wgt id='65'> +5.4584238e+02 </wgt>
<wgt id='66'> +4.9742063e+02 </wgt>
<wgt id='67'> +5.0736488e+02 </wgt>
<wgt id='68'> +5.5740194e+02 </wgt>
<wgt id='69'> +5.0483396e+02 </wgt>
<wgt id='70'> +5.0227246e+02 </wgt>
<wgt id='71'> +5.0602748e+02 </wgt>
<wgt id='72'> +4.8818200e+02 </wgt>
<wgt id='73'> +4.8700679e+02 </wgt>
<wgt id='74'> +5.3522135e+02 </wgt>
<wgt id='75'> +5.1699112e+02 </wgt>
<wgt id='76'> +5.0188806e+02 </wgt>
<wgt id='77'> +4.9442872e+02 </wgt>
<wgt id='78'> +4.7927737e+02 </wgt>
<wgt id='79'> +5.0305451e+02 </wgt>
<wgt id='80'> +4.8815160e+02 </wgt>
<wgt id='81'> +4.9848202e+02 </wgt>
<wgt id='82'> +4.9525510e+02 </wgt>
<wgt id='83'> +5.0710959e+02 </wgt>
<wgt id='84'> +5.3333404e+02 </wgt>
<wgt id='85'> +5.0718382e+02 </wgt>
<wgt id='86'> +5.0804219e+02 </wgt>
<wgt id='87'> +5.0729587e+02 </wgt>
<wgt id='88'> +5.0373137e+02 </wgt>
<wgt id='89'> +5.0376751e+02 </wgt>
<wgt id='90'> +5.1109396e+02 </wgt>
<wgt id='91'> +5.0868944e+02 </wgt>
<wgt id='92'> +4.6732371e+02 </wgt>
<wgt id='93'> +5.0285791e+02 </wgt>
<wgt id='94'> +4.8919537e+02 </wgt>
<wgt id='95'> +5.0432476e+02 </wgt>
<wgt id='96'> +5.3431324e+02 </wgt>
<wgt id='97'> +4.9556548e+02 </wgt>
<wgt id='98'> +4.9869212e+02 </wgt>
<wgt id='99'> +4.7518714e+02 </wgt>
<wgt id='100'> +4.6542613e+02 </wgt>
<wgt id='101'> +5.5669915e+02 </wgt>
<wgt id='102'> +5.2229203e+02 </wgt>
<wgt id='103'> +5.3484284e+02 </wgt>
<wgt id='104'> +5.1058701e+02 </wgt>
<wgt id='105'> +5.2127846e+02 </wgt>
<wgt id='106'> +4.6772542e+02 </wgt>
<wgt id='107'> +4.8391100e+02 </wgt>
<wgt id='108'> +4.5281364e+02 </wgt>
<wgt id='109'> +4.8135164e+02 </wgt>
<wgt id='110'> +4.9827802e+02 </wgt>
<wgt id='111'> +4.9274547e+02 </wgt>
<wgt id='112'> +4.8513935e+02 </wgt>
<wgt id='113'> +4.7651985e+02 </wgt>
<wgt id='114'> +4.9954566e+02 </wgt>
<wgt id='115'> +4.7752538e+02 </wgt>
<wgt id='116'> +5.2274999e+02 </wgt>
<wgt id='117'> +4.9803578e+02 </wgt>
<wgt id='118'> +5.2639546e+02 </wgt>
<wgt id='119'> +5.0052096e+02 </wgt>
<wgt id='120'> +4.9487194e+02 </wgt>
<wgt id='121'> +4.9879159e+02 </wgt>
<wgt id='122'> +4.9957077e+02 </wgt>
<wgt id='123'> +5.0437519e+02 </wgt>
<wgt id='124'> +5.5579180e+02 </wgt>
<wgt id='125'> +5.6556132e+02 </wgt>
<wgt id='126'> +5.1567443e+02 </wgt>
<wgt id='127'> +5.1327835e+02 </wgt>
<wgt id='128'> +4.6273832e+02 </wgt>
<wgt id='129'> +5.5705190e+02 </wgt>
<wgt id='130'> +4.9682739e+02 </wgt>
<wgt id='131'> +5.1864297e+02 </wgt>
<wgt id='132'> +5.3292460e+02 </wgt>
<wgt id='133'> +5.2065627e+02 </wgt>
<wgt id='134'> +4.9649458e+02 </wgt>
<wgt id='135'> +5.0837493e+02 </wgt>
<wgt id='136'> +5.2965837e+02 </wgt>
<wgt id='137'> +4.8733250e+02 </wgt>
<wgt id='138'> +4.7719375e+02 </wgt>
<wgt id='139'> +5.1933948e+02 </wgt>
<wgt id='140'> +5.1573586e+02 </wgt>
<wgt id='141'> +5.1724432e+02 </wgt>
<wgt id='142'> +4.6824401e+02 </wgt>
<wgt id='143'> +5.1594700e+02 </wgt>
<wgt id='144'> +4.9281679e+02 </wgt>
<wgt id='145'> +4.9698135e+02 </wgt>
</rwgt>
</event>
<event>
 4      1 +5.0481800e+02 2.27699100e+02 7.54677100e-03 1.12827000e-01
       21 -1    0    0  503  502 +0.0000000000e+00 +0.0000000000e+00 +2.6757775486e+02 2.6757775486e+02 0.0000000000e+00 0.0000e+00 1.0000e+00
       21 -1    0    0  501  503 -0.0000000000e+00 -0.0000000000e+00 -5.8885474091e+02 5.8885474091e+02 0.0000000000e+00 0.0000e+00 1.0000e+00
        6  1    1    2  501    0 -4.4607371502e+01 +1.4116678926e+02 -5.1139650107e+02 5.5979751811e+02 1.7300000000e+02 0.0000e+00 1.0000e+00
       -6  1    1    2    0  502 +4.4607371502e+01 -1.4116678926e+02 +1.9011951502e+02 2.9663497766e+02 1.7300000000e+02 0.0000e+00 1.0000e+00
<mgrwt>
<rscale>  2 0.22769910E+03</rscale>
<asrwt>0</asrwt>
<pdfrwt beam="1">  1       21 0.41165809E-01 0.22769910E+03</pdfrwt>
<pdfrwt beam="2">  1       21 0.90593037E-01 0.22769910E+03</pdfrwt>
<totfact> 0.57318921E+03</totfact>
</mgrwt>
<rwgt>
<wgt id='1'> +6.7626181e+02 </wgt>
<wgt id='2'> +5.7106484e+02 </wgt>
<wgt id='3'> +5.0481800e+02 </wgt>
<wgt id='4'> +6.7626181e+02 </wgt>
<wgt id='5'> +4.0491815e+02 </wgt>
<wgt id='6'> +6.1384421e+02 </wgt>
<wgt id='7'> +5.1421868e+02 </wgt>
<wgt id='8'> +4.5462991e+02 </wgt>
<wgt id='9'> +6.1384421e+02 </wgt>
<wgt id='10'> +3.6574643e+02 </wgt>
<wgt id='11'> +5.5281693e+02 </wgt>
<wgt id='12'> +4.6406899e+02 </wgt>
<wgt id='13'> +4.1095701e+02 </wgt>
<wgt id='14'> +5.5281693e+02 </wgt>
<wgt id='15'> +3.3162596e+02 </wgt>
<wgt id='16'> +5.5614948e+02 </wgt>
<wgt id='17'> +4.7877577e+02 </wgt>
<wgt id='18'> +4.2650847e+02 </wgt>
<wgt id='19'> +5.5614948e+02 </wgt>
<wgt id='20'> +3.4577209e+02 </wgt>
<wgt id='21'> +4.3111645e+02 </wgt>
<wgt id='22'> +3.8410577e+02 </wgt>
<wgt id='23'> +5.0481800e+02 </wgt>
<wgt id='24'> +3.1232215e+02 </wgt>
<wgt id='25'> +4.5462991e+02 </wgt>
<wgt id='26'> +3.8907138e+02 </wgt>
<wgt id='27'> +3.4720760e+02 </wgt>
<wgt id='28'> +4.5462991e+02 </wgt>
<wgt id='29'> +2.8318563e+02 </wgt>
<wgt id='30'> +4.6987719e+02 </wgt>
<wgt id='31'> +4.0763760e+02 </wgt>
<wgt id='32'> +3.6509622e+02 </wgt>
<wgt id='33'> +4.6987719e+02 </wgt>
<wgt id='34'> +2.9869867e+02 </wgt>
<wgt id='35'> +4.2650847e+02 </wgt>
<wgt id='36'> +3.6705967e+02 </wgt>
<wgt id='37'> +3.2879902e+02 </wgt>
<wgt id='38'> +4.2650847e+02 </wgt>
<wgt id='39'> +2.6980260e+02 </wgt>
<wgt id='40'> +3.8410577e+02 </wgt>
<wgt id='41'> +3.3126180e+02 </wgt>
<wgt id='42'> +2.9721375e+02 </wgt>
<wgt id='43'> +3.8410577e+02 </wgt>
<wgt id='44'> +2.4463273e+02 </wgt>
<wgt id='45'> +5.0481800e+02 </wgt>
<wgt id='46'> +5.2222040e+02 </wgt>
<wgt id='47'> +5.2913127e+02 </wgt>
<wgt id='48'> +5.1464638e+02 </wgt>
<wgt id='49'> +4.9757816e+02 </wgt>
<wgt id='50'> +6.3310859e+02 </wgt>
<wgt id='51'> +4.9249883e+02 </wgt>
<wgt id='52'> +5.0452258e+02 </wgt>
<wgt id='53'> +4.9624325e+02 </wgt>
<wgt id='54'> +5.1213914e+02 </wgt>
<wgt id='55'> +4.6390963e+02 </wgt>
<wgt id='56'> +4.5165910e+02 </wgt>
<wgt id='57'> +5.0028278e+02 </wgt>
<wgt id='58'> +4.8830527e+02 </wgt>
<wgt id='59'> +5.2440943e+02 </wgt>
<wgt id='60'> +5.0405501e+02 </wgt>
<wgt id='61'> +4.3961064e+02 </wgt>
<wgt id='62'> +4.9732065e+02 </wgt>
<wgt id='63'> +5.0690841e+02 </wgt>
<wgt id='64'> +4.8776456e+02 </wgt>
<wgt id='65'> +5.7705583e+02 </wgt>
<wgt id='66'> +4.9687682e+02 </wgt>
<wgt id='67'> +5.0831729e+02 </wgt>
<wgt id='68'> +5.6644939e+02 </wgt>
<wgt id='69'> +5.1463280e+02 </wgt>
<wgt id='70'> +4.9588208e+02 </wgt>
<wgt id='71'> +5.1012938e+02 </wgt>
<wgt id='72'> +4.6646404e+02 </wgt>
<wgt id='73'> +4.8551577e+02 </wgt>
<wgt id='74'> +5.4229599e+02 </wgt>
<wgt id='75'> +5.2095159e+02 </wgt>
<wgt id='76'> +4.9190631e+02 </wgt>
<wgt id='77'> +4.9642684e+02 </wgt>
<wgt id='78'> +4.7866764e+02 </wgt>
<wgt id='79'> +4.9949111e+02 </wgt>
<wgt id='80'> +4.8871471e+02 </wgt>
<wgt id='81'> +4.9110687e+02 </wgt>
<wgt id='82'> +4.9949571e+02 </wgt>
<wgt id='83'> +5.1919068e+02 </wgt>
<wgt id='84'> +5.5478136e+02 </wgt>
<wgt id='85'> +5.2078710e+02 </wgt>
<wgt id='86'> +5.1270216e+02 </wgt>
<wgt id='87'> +5.1048632e+02 </wgt>
<wgt id='88'> +5.1353314e+02 </wgt>
<wgt id='89'> +5.1638510e+02 </wgt>
<wgt id='90'> +5.1542974e+02 </wgt>
<wgt id='91'> +5.2099854e+02 </wgt>
<wgt id='92'> +4.4080245e+02 </wgt>
<wgt id='93'> +5.0578680e+02 </wgt>
<wgt id='94'> +4.8618447e+02 </wgt>
<wgt id='95'> +4.8784561e+02 </wgt>
<wgt id='96'> +5.5914562e+02 </wgt>
<wgt id='97'> +4.9723892e+02 </wgt>
<wgt id='98'> +4.9176923e+02 </wgt>
<wgt id='99'> +4.7585159e+02 </wgt>
<wgt id='100'> +4.6149321e+02 </wgt>
<wgt id='101'> +5.7155478e+02 </wgt>
<wgt id='102'> +5.2775209e+02 </wgt>
<wgt id='103'> +5.5460422e+02 </wgt>
<wgt id='104'> +5.1488249e+02 </wgt>
<wgt id='105'> +5.1547903e+02 </wgt>
<wgt id='106'> +4.4358726e+02 </wgt>
<wgt id='107'> +4.7018633e+02 </wgt>
<wgt id='108'> +4.3007170e+02 </wgt>
<wgt id='109'> +4.6372233e+02 </wgt>
<wgt id='110'> +4.9711836e+02 </wgt>
<wgt id='111'> +4.8453899e+02 </wgt>
<wgt id='112'> +4.7037285e+02 </wgt>
<wgt id='113'> +4.5753662e+02 </wgt>
<wgt id='114'> +4.8208761e+02 </wgt>
<wgt id='115'> +4.7251323e+02 </wgt>
<wgt id='116'> +5.3313239e+02 </wgt>
<wgt id='117'> +4.9828115e+02 </wgt>
<wgt id='118'> +5.3986983e+02 </wgt>
<wgt id='119'> +4.8515417e+02 </wgt>
<wgt id='120'> +4.8762862e+02 </wgt>
<wgt id='121'> +4.8724358e+02 </wgt>
<wgt id='122'> +4.9632496e+02 </wgt>
<wgt id='123'> +5.1357334e+02 </wgt>
<wgt id='124'> +5.7203251e+02 </wgt>
<wgt id='125'> +5.7542568e+02 </wgt>
<wgt id='126'> +5.2888366e+02 </wgt>
<wgt id='127'> +5.2380735e+02 </wgt>
<wgt id='128'> +4.5310328e+02 </wgt>
<wgt id='129'> +5.7507402e+02 </wgt>
<wgt id='130'> +5.0723934e+02 </wgt>
<wgt id='131'> +5.3040238e+02 </wgt>
<wgt id='132'> +5.2887534e+02 </wgt>
<wgt id='133'> +5.2471499e+02 </wgt>
<wgt id='134'> +4.8624783e+02 </wgt>
<wgt id='135'> +5.1356599e+02 </wgt>
<wgt id='136'> +5.1621716e+02 </wgt>
<wgt id='137'> +4.8558791e+02 </wgt>
<wgt id='138'> +4.8238125e+02 </wgt>
<wgt id='139'> +5.2429930e+02 </wgt>
<wgt id='140'> +5.2026125e+02 </wgt>
<wgt id='141'> +5.1550165e+02 </wgt>
<wgt id='142'> +4.7052806e+02 </wgt>
<wgt id='143'> +5.1442913e+02 </wgt>
<wgt id='144'> +4.8830625e+02 </wgt>
<wgt id='145'> +5.0220792e+02 </wgt>
</rwgt>
</event>
<event>
 4      1 +5.0481800e+02 1.90145200e+02 7.54677100e-03 1.15833000e-01
       21 -1    0    0  501  502 +0.0000000000e+00 +0.0000000000e+00 +1.1342672975e+02 1.1342672975e+02 0.0000000000e+00 0.0000e+00 1.0000e+00
       21 -1    0    0  502  503 -0.0000000000e+00 -0.0000000000e+00 -4.1379239429e+02 4.1379239429e+02 0.0000000000e+00 0.0000e+00 1.0000e+00
        6  1    1    2  501    0 -4.2488682697e+00 +7.8791870845e+01 -2.3848992900e+01 1.9163503400e+02 1.7300000000e+02 0.0000e+00 1.0000e+00
       -6  1    1    2    0  503 +4.2488682697e+00 -7.8791870845e+01 -2.7651667164e+02 3.3558409004e+02 1.7300000000e+02 0.0000e+00 1.0000e+00
<mgrwt>
<rscale>  2 0.19014524E+03</rscale>
<asrwt>0</asrwt>
<pdfrwt beam="1">  1       21 0.17450266E-01 0.19014524E+03</pdfrwt>
<pdfrwt beam="2">  1       21 0.63660370E-01 0.19014524E+03</pdfrwt>
<totfact> 0.67871922E+04</totfact>
</mgrwt>
<rwgt>
<wgt id='1'> +6.4927188e+02 </wgt>
<wgt id='2'> +5.6633473e+02 </wgt>
<wgt id='3'> +5.0481800e+02 </wgt>
<wgt id='4'> +6.4927188e+02 </wgt>
<wgt id='5'> +4.8229108e+02 </wgt>
<wgt id='6'> +6.1985994e+02 </wgt>
<wgt id='7'> +5.3456375e+02 </wgt>
<wgt id='8'> +4.7333896e+02 </wgt>
<wgt id='9'> +6.1985995e+02 </wgt>
<wgt id='10'> +4.5204382e+02 </wgt>
<wgt id='11'> +5.8120720e+02 </wgt>
<wgt id='12'> +5.0098296e+02 </wgt>
<wgt id='13'> +4.4356374e+02 </wgt>
<wgt id='14'> +5.8120721e+02 </wgt>
<wgt id='15'> +4.2361546e+02 </wgt>
<wgt id='16'> +5.2877127e+02 </wgt>
<wgt id='17'> +4.7035388e+02 </wgt>
<wgt id='18'> +4.2485041e+02 </wgt>
<wgt id='19'> +5.2877127e+02 </wgt>
<wgt id='20'> +4.0709495e+02 </wgt>
<wgt id='21'> +4.4396736e+02 </wgt>
<wgt id='22'> +3.9835792e+02 </wgt>
<wgt id='23'> +5.0481800e+02 </wgt>
<wgt id='24'> +3.8156368e+02 </wgt>
<wgt id='25'> +4.7333896e+02 </wgt>
<wgt id='26'> +4.1607775e+02 </wgt>
<wgt id='27'> +3.7329936e+02 </wgt>
<wgt id='28'> +4.7333896e+02 </wgt>
<wgt id='29'> +3.5756770e+02 </wgt>
<wgt id='30'> +4.4500927e+02 </wgt>
<wgt id='31'> +3.9890620e+02 </wgt>
<wgt id='32'> +3.6251155e+02 </wgt>
<wgt id='33'> +4.4500928e+02 </wgt>
<wgt id='34'> +3.4817545e+02 </wgt>
<wgt id='35'> +4.2485041e+02 </wgt>
<wgt id='36'> +3.7652784e+02 </wgt>
<wgt id='37'> +3.3990634e+02 </wgt>
<wgt id='38'> +4.2485041e+02 </wgt>
<wgt id='39'> +3.2633936e+02 </wgt>
<wgt id='40'> +3.9835792e+02 </wgt>
<wgt id='41'> +3.5287472e+02 </wgt>
<wgt id='42'> +3.1852465e+02 </wgt>
<wgt id='43'> +3.9835792e+02 </wgt>
<wgt id='44'> +3.0581636e+02 </wgt>
<wgt id='45'> +5.0481800e+02 </wgt>
<wgt id='46'> +5.0730001e+02 </wgt>
<wgt id='47'> +5.2168249e+02 </wgt>
<wgt id='48'> +5.0681785e+02 </wgt>
<wgt id='49'> +5.0252375e+02 </wgt>
<wgt id='50'> +5.8999043e+02 </wgt>
<wgt id='51'> +4.9479548e+02 </wgt>
<wgt id='52'> +5.0307601e+02 </wgt>
<wgt id='53'> +5.0736314e+02 </wgt>
<wgt id='54'> +5.0840776e+02 </wgt>
<wgt id='55'> +4.5781202e+02 </wgt>
<wgt id='56'> +4.6783583e+02 </wgt>
<wgt id='57'> +4.9508040e+02 </wgt>
<wgt id='58'> +5.0574229e+02 </wgt>
<wgt id='59'> +5.0385738e+02 </wgt>
<wgt id='60'> +4.8976996e+02 </wgt>
<wgt id='61'> +4.8016016e+02 </wgt>
<wgt id='62'> +4.9782715e+02 </wgt>
<wgt id='63'> +5.0536508e+02 </wgt>
<wgt id='64'> +4.9851788e+02 </wgt>
<wgt id='65'> +5.8587390e+02 </wgt>
<wgt id='66'> +4.9351016e+02 </wgt>
<wgt id='67'> +5.0900343e+02 </wgt>
<wgt id='68'> +5.4384068e+02 </wgt>
<wgt id='69'> +4.9434161e+02 </wgt>
<wgt id='70'> +4.9681670e+02 </wgt>
<wgt id='71'> +5.1373398e+02 </wgt>
<wgt id='72'> +4.9062042e+02 </wgt>
<wgt id='73'> +4.9674054e+02 </wgt>
<wgt id='74'> +5.2252437e+02 </wgt>
<wgt id='75'> +5.1555060e+02 </wgt>
<wgt id='76'> +4.9227223e+02 </wgt>
<wgt id='77'> +4.8891673e+02 </wgt>
<wgt id='78'> +5.0012263e+02 </wgt>
<wgt id='79'> +4.8777453e+02 </wgt>
<wgt id='80'> +4.9865742e+02 </wgt>
<wgt id='81'> +4.9555888e+02 </wgt>
<wgt id='82'> +5.1354141e+02 </wgt>
<wgt id='83'> +5.1378511e+02 </wgt>
<wgt id='84'> +5.5074582e+02 </wgt>
<wgt id='85'> +5.2709883e+02 </wgt>
<wgt id='86'> +5.0252433e+02 </wgt>
<wgt id='87'> +5.0575305e+02 </wgt>
<wgt id='88'> +5.1152170e+02 </wgt>
<wgt id='89'> +5.1615206e+02 </wgt>
<wgt id='90'> +5.1211473e+02 </wgt>
<wgt id='91'> +5.3256002e+02 </wgt>
<wgt id='92'> +4.6500276e+02 </wgt>
<wgt id='93'> +4.9763776e+02 </wgt>
<wgt id='94'> +5.0015661e+02 </wgt>
<wgt id='95'> +4.8771577e+02 </wgt>
<wgt id='96'> +5.4344462e+02 </wgt>
<wgt id='97'> +5.0976488e+02 </wgt>
<wgt id='98'> +4.8436040e+02 </wgt>
<wgt id='99'> +4.8833668e+02 </wgt>
<wgt id='100'> +4.9506461e+02 </wgt>
<wgt id='101'> +5.3582082e+02 </wgt>
<wgt id='102'> +4.9651483e+02 </wgt>
<wgt id='103'> +5.4700939e+02 </wgt>
<wgt id='104'> +5.0455801e+02 </wgt>
<wgt id='105'> +5.2397667e+02 </wgt>
<wgt id='106'> +4.6423903e+02 </wgt>
<wgt id='107'> +4.9488727e+02 </wgt>
<wgt id='108'> +4.5129268e+02 </wgt>
<wgt id='109'> +4.7480480e+02 </wgt>
<wgt id='110'> +5.0504249e+02 </wgt>
<wgt id='111'> +4.9166879e+02 </wgt>
<wgt id='112'> +4.8045374e+02 </wgt>
<wgt id='113'> +4.6483990e+02 </wgt>
<wgt id='114'> +5.0084651e+02 </wgt>
<wgt id='115'> +4.9826788e+02 </wgt>
<wgt id='116'> +5.0784359e+02 </wgt>
<wgt id='117'> +5.0817417e+02 </wgt>
<wgt id='118'> +5.1989666e+02 </wgt>
<wgt id='119'> +4.8701477e+02 </wgt>
<wgt id='120'> +4.9859831e+02 </wgt>
<wgt id='121'> +4.9210951e+02 </wgt>
<wgt id='122'> +4.9876552e+02 </wgt>
<wgt id='123'> +5.1013777e+02 </wgt>
<wgt id='124'> +5.4268471e+02 </wgt>
<wgt id='125'> +5.4442599e+02 </wgt>
<wgt id='126'> +5.2286000e+02 </wgt>
<wgt id='127'> +5.1930616e+02 </wgt>
<wgt id='128'> +4.6612247e+02 </wgt>
<wgt id='129'> +5.6975773e+02 </wgt>
<wgt id='130'> +5.0587156e+02 </wgt>
<wgt id='131'> +5.3719628e+02 </wgt>
<wgt id='132'> +5.0708676e+02 </wgt>
<wgt id='133'> +5.0504426e+02 </wgt>
<wgt id='134'> +4.7903170e+02 </wgt>
<wgt id='135'> +5.1651592e+02 </wgt>
<wgt id='136'> +4.9265331e+02 </wgt>
<wgt id='137'> +4.7711612e+02 </wgt>
<wgt id='138'> +4.6194370e+02 </wgt>
<wgt id='139'> +5.1579648e+02 </wgt>
<wgt id='140'> +5.3237225e+02 </wgt>
<wgt id='141'> +5.0543977e+02 </wgt>
<wgt id='142'> +5.0095435e+02 </wgt>
<wgt id='143'> +5.0434412e+02 </wgt>
<wgt id='144'> +5.0292575e+02 </wgt>
<wgt id='145'> +5.0542571e+02 </wgt>
</rwgt>
</event>
<event>
 4      1 +5.0481800e+02 2.06172000e+02 7.54677100e-03 1.14463400e-01
       21 -1    0    0  501  502 +0.0000000000e+00 +0.0000000000e+00 +5.7421651639e+02 5.7421651639e+02 0.0000000000e+00 0.0000e+00 -1.0000e+00
       21 -1    0    0  502  503 -0.0000000000e+00 -0.0000000000e+00 -1.4880836112e+02 1.4880836112e+02 0.0000000000e+00 0.0000e+00 1.0000e+00
        6  1    1    2  501    0 -1.0677858085e+02 +3.4296402063e+01 +4.6898093141e+02 5.1229876298e+02 1.7300000000e+02 0.0000e+00 -1.0000e+00
       -6  1    1    2    0  503 +1.0677858085e+02 -3.4296402063e+01 -4.3572776151e+01 2.1072611453e+02 1.7300000000e+02 0.0000e+00 1.0000e+00
<mgrwt>
<rscale>  2 0.20617204E+03</rscale>
<asrwt>0</asrwt>
<pdfrwt beam="1">  1       21 0.88341001E-01 0.20617204E+03</pdfrwt>
<pdfrwt beam="2">  1       21 0.22893594E-01 0.20617204E+03</pdfrwt>
<totfact> 0.19474307E+04</totfact>
</mgrwt>
<rwgt>
<wgt id='1'> +6.6362233e+02 </wgt>
<wgt id='2'> +5.5977784e+02 </wgt>
<wgt id='3'> +5.0481800e+02 </wgt>
<wgt id='4'> +6.6362234e+02 </wgt>
<wgt id='5'> +4.4277830e+02 </wgt>
<wgt id='6'> +6.1725915e+02 </wgt>
<wgt id='7'> +5.1484773e+02 </wgt>
<wgt id='8'> +4.6324718e+02 </wgt>
<wgt id='9'> +6.1725915e+02 </wgt>
<wgt id='10'> +4.0669546e+02 </wgt>
<wgt id='11'> +5.6642900e+02 </wgt>
<wgt id='12'> +4.7298211e+02 </wgt>
<wgt id='13'> +4.2588524e+02 </wgt>
<wgt id='14'> +5.6642901e+02 </wgt>
<wgt id='15'> +3.7428635e+02 </wgt>
<wgt id='16'> +5.4273558e+02 </wgt>
<wgt id='17'> +4.6802995e+02 </wgt>
<wgt id='18'> +4.2569844e+02 </wgt>
<wgt id='19'> +5.4273558e+02 </wgt>
<wgt id='20'> +3.7595366e+02 </wgt>
<wgt id='21'> +4.3046391e+02 </wgt>
<wgt id='22'> +3.9064296e+02 </wgt>
<wgt id='23'> +5.0481800e+02 </wgt>
<wgt id='24'> +3.4531648e+02 </wgt>
<wgt id='25'> +4.6324717e+02 </wgt>
<wgt id='26'> +3.9546009e+02 </wgt>
<wgt id='27'> +3.5913672e+02 </wgt>
<wgt id='28'> +4.6324718e+02 </wgt>
<wgt id='29'> +3.1779860e+02 </wgt>
<wgt id='30'> +4.5767323e+02 </wgt>
<wgt id='31'> +3.9797434e+02 </wgt>
<wgt id='32'> +3.6376652e+02 </wgt>
<wgt id='33'> +4.5767323e+02 </wgt>
<wgt id='34'> +3.2318821e+02 </wgt>
<wgt id='35'> +4.2569843e+02 </wgt>
<wgt id='36'> +3.6603125e+02 </wgt>
<wgt id='37'> +3.3381102e+02 </wgt>
<wgt id='38'> +4.2569844e+02 </wgt>
<wgt id='39'> +2.9685099e+02 </wgt>
<wgt id='40'> +3.9064296e+02 </wgt>
<wgt id='41'> +3.3626687e+02 </wgt>
<wgt id='42'> +3.0688841e+02 </wgt>
<wgt id='43'> +3.9064296e+02 </wgt>
<wgt id='44'> +2.7319526e+02 </wgt>
<wgt id='45'> +5.0481800e+02 </wgt>
<wgt id='46'> +5.1542013e+02 </wgt>
<wgt id='47'> +5.2448348e+02 </wgt>
<wgt id='48'> +5.1034682e+02 </wgt>
<wgt id='49'> +4.9841312e+02 </wgt>
<wgt id='50'> +6.1088310e+02 </wgt>
<wgt id='51'> +4.9280817e+02 </wgt>
<wgt id='52'> +5.0345824e+02 </wgt>
<wgt id='53'> +5.0092903e+02 </wgt>
<wgt id='54'> +5.1165872e+02 </wgt>
<wgt id='55'> +4.6623524e+02 </wgt>
<wgt id='56'> +4.5922308e+02 </wgt>
<wgt id='57'> +5.0082480e+02 </wgt>
<wgt id='58'> +4.9498044e+02 </wgt>
<wgt id='59'> +5.1738113e+02 </wgt>
<wgt id='60'> +4.9836323e+02 </wgt>
<wgt id='61'> +4.5123644e+02 </wgt>
<wgt id='62'> +4.9642428e+02 </wgt>
<wgt id='63'> +5.0658829e+02 </wgt>
<wgt id='64'> +4.9369440e+02 </wgt>
<wgt id='65'> +5.7623308e+02 </wgt>
<wgt id='66'> +4.9550990e+02 </wgt>
<wgt id='67'> +5.0834962e+02 </wgt>
<wgt id='68'> +5.5689246e+02 </wgt>
<wgt id='69'> +5.0550796e+02 </wgt>
<wgt id='70'> +4.9701639e+02 </wgt>
<wgt id='71'> +5.1086385e+02 </wgt>
<wgt id='72'> +4.7943633e+02 </wgt>
<wgt id='73'> +4.8942744e+02 </wgt>
<wgt id='74'> +5.3383029e+02 </wgt>
<wgt id='75'> +5.1835330e+02 </wgt>
<wgt id='76'> +4.9413072e+02 </wgt>
<wgt id='77'> +4.9301634e+02 </wgt>
<wgt id='78'> +4.8633337e+02 </wgt>
<wgt id='79'> +4.9543704e+02 </wgt>
<wgt id='80'> +4.9189323e+02 </wgt>
<wgt id='81'> +4.9385092e+02 </wgt>
<wgt id='82'> +5.0301814e+02 </wgt>
<wgt id='83'> +5.1517624e+02 </wgt>
<wgt id='84'> +5.5004225e+02 </wgt>
<wgt id='85'> +5.2046370e+02 </wgt>
<wgt id='86'> +5.0803530e+02 </wgt>
<wgt id='87'> +5.0815144e+02 </wgt>
<wgt id='88'> +5.1105181e+02 </wgt>
<wgt id='89'> +5.1383839e+02 </wgt>
<wgt id='90'> +5.1359863e+02 </wgt>
<wgt id='91'> +5.2296925e+02 </wgt>
<wgt id='92'> +4.5415341e+02 </wgt>
<wgt id='93'> +5.0200893e+02 </wgt>
<wgt id='94'> +4.9161164e+02 </wgt>
<wgt id='95'> +4.9144271e+02 </wgt>
<wgt id='96'> +5.4867413e+02 </wgt>
<wgt id='97'> +5.0153113e+02 </wgt>
<wgt id='98'> +4.9029988e+02 </wgt>
<wgt id='99'> +4.7967543e+02 </wgt>
<wgt id='100'> +4.7354815e+02 </wgt>
<wgt id='101'> +5.5595617e+02 </wgt>
<wgt id='102'> +5.1527677e+02 </wgt>
<wgt id='103'> +5.4842281e+02 </wgt>
<wgt id='104'> +5.1048259e+02 </wgt>
<wgt id='105'> +5.2008835e+02 </wgt>
<wgt id='106'> +4.5532636e+02 </wgt>
<wgt id='107'> +4.8129715e+02 </wgt>
<wgt id='108'> +4.4145527e+02 </wgt>
<wgt id='109'> +4.7095844e+02 </wgt>
<wgt id='110'> +4.9998982e+02 </wgt>
<wgt id='111'> +4.8895569e+02 </wgt>
<wgt id='112'> +4.7638811e+02 </wgt>
<wgt id='113'> +4.6335283e+02 </wgt>
<wgt id='114'> +4.9275573e+02 </wgt>
<wgt id='115'> +4.8339256e+02 </wgt>
<wgt id='116'> +5.2198904e+02 </wgt>
<wgt id='117'> +5.0206398e+02 </wgt>
<wgt id='118'> +5.3022305e+02 </wgt>
<wgt id='119'> +4.8860610e+02 </wgt>
<wgt id='120'> +4.9397275e+02 </wgt>
<wgt id='121'> +4.9126382e+02 </wgt>
<wgt id='122'> +4.9810808e+02 </wgt>
<wgt id='123'> +5.1086665e+02 </wgt>
<wgt id='124'> +5.5880902e+02 </wgt>
<wgt id='125'> +5.6268752e+02 </wgt>
<wgt id='126'> +5.2427950e+02 </wgt>
<wgt id='127'> +5.2026137e+02 </wgt>
<wgt id='128'> +4.5925343e+02 </wgt>
<wgt id='129'> +5.7049478e+02 </wgt>
<wgt id='130'> +5.0454132e+02 </wgt>
<wgt id='131'> +5.3072824e+02 </wgt>
<wgt id='132'> +5.2192972e+02 </wgt>
<wgt id='133'> +5.1680118e+02 </wgt>
<wgt id='134'> +4.8527792e+02 </wgt>
<wgt id='135'> +5.1364310e+02 </wgt>
<wgt id='136'> +5.1054336e+02 </wgt>
<wgt id='137'> +4.8261574e+02 </wgt>
<wgt id='138'> +4.7362983e+02 </wgt>
<wgt id='139'> +5.2018423e+02 </wgt>
<wgt id='140'> +5.2397651e+02 </wgt>
<wgt id='141'> +5.1226369e+02 </wgt>
<wgt id='142'> +4.7993993e+02 </wgt>
<wgt id='143'> +5.1093712e+02 </wgt>
<wgt id='144'> +4.9413035e+02 </wgt>
<wgt id='145'> +5.0257528e+02 </wgt>
</rwgt>
</event>
<event>
 4      1 +5.0481800e+02 2.44904000e+02 7.54677100e-03 1.11656800e-01
       21 -1    0    0  501  502 +0.0000000000e+00 +0.0000000000e+00 +1.0053138792e+02 1.0053138792e+02 0.0000000000e+00 0.0000e+00 1.0000e+00
       21 -1    0    0  502  503 -0.0000000000e+00 -0.0000000000e+00 -6.7241364477e+02 6.7241364477e+02 0.0000000000e+00 0.0000e+00 1.0000e+00
        6  1    1    2  501    0 -1.6143430596e+02 -6.3150236454e+01 -1.5617939179e+02 2.9046512687e+02 1.7300000000e+02 0.0000e+00 1.0000e+00
       -6  1    1    2    0  503 +1.6143430596e+02 +6.3150236454e+01 -4.1570286506e+02 4.8247990582e+02 1.7300000000e+02 0.0000e+00 1.0000e+00
<mgrwt>
<rscale>  2 0.24490404E+03</rscale>
<asrwt>0</asrwt>
<pdfrwt beam="1">  1       21 0.15466367E-01 0.24490404E+03</pdfrwt>
<pdfrwt beam="2">  1       21 0.10344826E+00 0.24490404E+03</pdfrwt>
<totfact> 0.27309110E+04</totfact>
</mgrwt>
<rwgt>
<wgt id='1'> +6.5745504e+02 </wgt>
<wgt id='2'> +5.4363378e+02 </wgt>
<wgt id='3'> +5.0481800e+02 </wgt>
<wgt id='4'> +6.5745505e+02 </wgt>
<wgt id='5'> +4.9381981e+02 </wgt>
<wgt id='6'> +6.1151228e+02 </wgt>
<wgt id='7'> +5.0097354e+02 </wgt>
<wgt id='8'> +4.6537370e+02 </wgt>
<wgt id='9'> +6.1151228e+02 </wgt>
<wgt id='10'> +4.5527140e+02 </wgt>
<wgt id='11'> +5.6373135e+02 </wgt>
<wgt id='12'> +4.6221928e+02 </wgt>
<wgt id='13'> +4.2956066e+02 </wgt>
<wgt id='14'> +5.6373135e+02 </wgt>
<wgt id='15'> +4.2029463e+02 </wgt>
<wgt id='16'> +5.4274485e+02 </wgt>
<wgt id='17'> +4.5816455e+02 </wgt>
<wgt id='18'> +4.2713618e+02 </wgt>
<wgt id='19'> +5.4274485e+02 </wgt>
<wgt id='20'> +4.1832810e+02 </wgt>
<wgt id='21'> +4.2221128e+02 </wgt>
<wgt id='22'> +3.9376160e+02 </wgt>
<wgt id='23'> +5.0481800e+02 </wgt>
<wgt id='24'> +3.8567270e+02 </wgt>
<wgt id='25'> +4.6537370e+02 </wgt>
<wgt id='26'> +3.8954991e+02 </wgt>
<wgt id='27'> +3.6345950e+02 </wgt>
<wgt id='28'> +4.6537370e+02 </wgt>
<wgt id='29'> +3.5604293e+02 </wgt>
<wgt id='30'> +4.5922681e+02 </wgt>
<wgt id='31'> +3.9132128e+02 </wgt>
<wgt id='32'> +3.6609542e+02 </wgt>
<wgt id='33'> +4.5922681e+02 </wgt>
<wgt id='34'> +3.5891275e+02 </wgt>
<wgt id='35'> +4.2713618e+02 </wgt>
<wgt id='36'> +3.6061337e+02 </wgt>
<wgt id='37'> +3.3749031e+02 </wgt>
<wgt id='38'> +4.2713618e+02 </wgt>
<wgt id='39'> +3.3089542e+02 </wgt>
<wgt id='40'> +3.9376160e+02 </wgt>
<wgt id='41'> +3.3271708e+02 </wgt>
<wgt id='42'> +3.1151859e+02 </wgt>
<wgt id='43'> +3.9376160e+02 </wgt>
<wgt id='44'> +3.0547398e+02 </wgt>
<wgt id='45'> +5.0481800e+02 </wgt>
<wgt id='46'> +5.1612400e+02 </wgt>
<wgt id='47'> +5.2140022e+02 </wgt>
<wgt id='48'> +5.0828713e+02 </wgt>
<wgt id='49'> +4.9433617e+02 </wgt>
<wgt id='50'> +6.0299591e+02 </wgt>
<wgt id='51'> +4.9100651e+02 </wgt>
<wgt id='52'> +5.0150436e+02 </wgt>
<wgt id='53'> +4.9944239e+02 </wgt>
<wgt id='54'> +5.1473709e+02 </wgt>
<wgt id='55'> +4.8200825e+02 </wgt>
<wgt id='56'> +4.6224247e+02 </wgt>
<wgt id='57'> +5.0804012e+02 </wgt>
<wgt id='58'> +4.9076309e+02 </wgt>
<wgt id='59'> +5.2421333e+02 </wgt>
<wgt id='60'> +5.0226941e+02 </wgt>
<wgt id='61'> +4.4588781e+02 </wgt>
<wgt id='62'> +4.9321505e+02 </wgt>
<wgt id='63'> +5.0876972e+02 </wgt>
<wgt id='64'> +4.9571184e+02 </wgt>
<wgt id='65'> +5.5690628e+02 </wgt>
<wgt id='66'> +4.9745876e+02 </wgt>
<wgt id='67'> +5.0771815e+02 </wgt>
<wgt id='68'> +5.5954947e+02 </wgt>
<wgt id='69'> +5.0811876e+02 </wgt>
<wgt id='70'> +5.0098736e+02 </wgt>
<wgt id='71'> +5.0695126e+02 </wgt>
<wgt id='72'> +4.8215614e+02 </wgt>
<wgt id='73'> +4.8569811e+02 </wgt>
<wgt id='74'> +5.3682618e+02 </wgt>
<wgt id='75'> +5.1867807e+02 </wgt>
<wgt id='76'> +4.9943658e+02 </wgt>
<wgt id='77'> +4.9348862e+02 </wgt>
<wgt id='78'> +4.7960242e+02 </wgt>
<wgt id='79'> +5.0127046e+02 </wgt>
<wgt id='80'> +4.8812768e+02 </wgt>
<wgt id='81'> +4.9685463e+02 </wgt>
<wgt id='82'> +4.9698018e+02 </wgt>
<wgt id='83'> +5.1089532e+02 </wgt>
<wgt id='84'> +5.3994318e+02 </wgt>
<wgt id='85'> +5.1040240e+02 </wgt>
<wgt id='86'> +5.0939129e+02 </wgt>
<wgt id='87'> +5.0747572e+02 </wgt>
<wgt id='88'> +5.0737003e+02 </wgt>
<wgt id='89'> +5.0516888e+02 </wgt>
<wgt id='90'> +5.1091636e+02 </wgt>
<wgt id='91'> +5.1186712e+02 </wgt>
<wgt id='92'> +4.6050248e+02 </wgt>
<wgt id='93'> +5.0293918e+02 </wgt>
<wgt id='94'> +4.8826734e+02 </wgt>
<wgt id='95'> +5.0009603e+02 </wgt>
<wgt id='96'> +5.4082665e+02 </wgt>
<wgt id='97'> +4.9623509e+02 </wgt>
<wgt id='98'> +4.9749899e+02 </wgt>
<wgt id='99'> +4.7415847e+02 </wgt>
<wgt id='100'> +4.6382559e+02 </wgt>
<wgt id='101'> +5.5929626e+02 </wgt>
<wgt id='102'> +5.2274598e+02 </wgt>
<wgt id='103'> +5.3885006e+02 </wgt>
<wgt id='104'> +5.1262921e+02 </wgt>
<wgt id='105'> +5.2011841e+02 </wgt>
<wgt id='106'> +4.6188507e+02 </wgt>
<wgt id='107'> +4.8112420e+02 </wgt>
<wgt id='108'> +4.4772797e+02 </wgt>
<wgt id='109'> +4.7697403e+02 </wgt>
<wgt id='110'> +4.9700164e+02 </wgt>
<wgt id='111'> +4.9111147e+02 </wgt>
<wgt id='112'> +4.8228082e+02 </wgt>
<wgt id='113'> +4.7200281e+02 </wgt>
<wgt id='114'> +4.9674712e+02 </wgt>
<wgt id='115'> +4.7930286e+02 </wgt>
<wgt id='116'> +5.2502513e+02 </wgt>
<wgt id='117'> +4.9930880e+02 </wgt>
<wgt id='118'> +5.2890615e+02 </wgt>
<wgt id='119'> +4.9682549e+02 </wgt>
<wgt id='120'> +4.9524083e+02 </wgt>
<wgt id='121'> +4.9519893e+02 </wgt>
<wgt id='122'> +4.9858936e+02 </wgt>
<wgt id='123'> +5.0705338e+02 </wgt>
<wgt id='124'> +5.5923802e+02 </wgt>
<wgt id='125'> +5.6801058e+02 </wgt>
<wgt id='126'> +5.1878412e+02 </wgt>
<wgt id='127'> +5.1528302e+02 </wgt>
<wgt id='128'> +4.6188553e+02 </wgt>
<wgt id='129'> +5.6140964e+02 </wgt>
<wgt id='130'> +5.0106176e+02 </wgt>
<wgt id='131'> +5.2150051e+02 </wgt>
<wgt id='132'> +5.2986175e+02 </wgt>
<wgt id='133'> +5.2102135e+02 </wgt>
<wgt id='134'> +4.9319751e+02 </wgt>
<wgt id='135'> +5.0931638e+02 </wgt>
<wgt id='136'> +5.2497526e+02 </wgt>
<wgt id='137'> +4.8750884e+02 </wgt>
<wgt id='138'> +4.7901747e+02 </wgt>
<wgt id='139'> +5.1972339e+02 </wgt>
<wgt id='140'> +5.1749018e+02 </wgt>
<wgt id='141'> +5.1782019e+02 </wgt>
<wgt id='142'> +4.6893952e+02 </wgt>
<wgt id='143'> +5.1417263e+02 </wgt>
<wgt id='144'> +4.9100506e+02 </wgt>
<wgt id='145'> +4.9820683e+02 </wgt>
</rwgt>
</event>
<event>
 4      1 +5.0481800e+02 2.00922200e+02 7.54677100e-03 1.14896300e-01
       21 -1    0    0  501  502 +0.0000000000e+00 +0.0000000000e+00 +1.2712846211e+03 1.2712846211e+03 0.0000000000e+00 0.0000e+00 -1.0000e+00
       21 -1    0    0  502  503 -0.0000000000e+00 -0.0000000000e+00 -4.8144074781e+01 4.8144074781e+01 0.0000000000e+00 0.0000e+00 -1.0000e+00
        6  1    1    2  501    0 -1.0182698581e+02 +8.4856607836e+00 +2.2665893810e+02 3.0289274619e+02 1.7300000000e+02 0.0000e+00 -1.0000e+00
       -6  1    1    2    0  503 +1.0182698581e+02 -8.4856607836e+00 +9.9648160822e+02 1.0165359497e+03 1.7300000000e+02 0.0000e+00 -1.0000e+00
<mgrwt>
<rscale>  2 0.20092223E+03</rscale>
<asrwt>0</asrwt>
<pdfrwt beam="1">  1       21 0.19558222E+00 0.20092223E+03</pdfrwt>
<pdfrwt beam="2">  1       21 0.74067817E-02 0.20092223E+03</pdfrwt>
<totfact> 0.19548083E+04</totfact>
</mgrwt>
<rwgt>
<wgt id='1'> +6.7699797e+02 </wgt>
<wgt id='2'> +6.4049603e+02 </wgt>
<wgt id='3'> +5.0481800e+02 </wgt>
<wgt id='4'> +6.7699797e+02 </wgt>
<wgt id='5'> +4.6395720e+02 </wgt>
<wgt id='6'> +6.1813676e+02 </wgt>
<wgt id='7'> +5.8280407e+02 </wgt>
<wgt id='8'> +4.5488603e+02 </wgt>
<wgt id='9'> +6.1813676e+02 </wgt>
<wgt id='10'> +4.1844820e+02 </wgt>
<wgt id='11'> +5.5699633e+02 </wgt>
<wgt id='12'> +5.2546915e+02 </wgt>
<wgt id='13'> +4.1110866e+02 </wgt>
<wgt id='14'> +5.5699633e+02 </wgt>
<wgt id='15'> +3.7854397e+02 </wgt>
<wgt id='16'> +5.5288859e+02 </wgt>
<wgt id='17'> +5.2679537e+02 </wgt>
<wgt id='18'> +4.2545991e+02 </wgt>
<wgt id='19'> +5.5288859e+02 </wgt>
<wgt id='20'> +3.9264259e+02 </wgt>
<wgt id='21'> +4.7934487e+02 </wgt>
<wgt id='22'> +3.8337731e+02 </wgt>
<wgt id='23'> +5.0481800e+02 </wgt>
<wgt id='24'> +3.5412875e+02 </wgt>
<wgt id='25'> +4.5488603e+02 </wgt>
<wgt id='26'> +4.3218803e+02 </wgt>
<wgt id='27'> +3.4648181e+02 </wgt>
<wgt id='28'> +4.5488603e+02 </wgt>
<wgt id='29'> +3.2035818e+02 </wgt>
<wgt id='30'> +4.6597373e+02 </wgt>
<wgt id='31'> +4.4509464e+02 </wgt>
<wgt id='32'> +3.6339380e+02 </wgt>
<wgt id='33'> +4.6597373e+02 </wgt>
<wgt id='34'> +3.3659005e+02 </wgt>
<wgt id='35'> +4.2545991e+02 </wgt>
<wgt id='36'> +4.0500325e+02 </wgt>
<wgt id='37'> +3.2745022e+02 </wgt>
<wgt id='38'> +4.2545991e+02 </wgt>
<wgt id='39'> +3.0357433e+02 </wgt>
<wgt id='40'> +3.8337731e+02 </wgt>
<wgt id='41'> +3.6515996e+02 </wgt>
<wgt id='42'> +2.9593703e+02 </wgt>
<wgt id='43'> +3.8337731e+02 </wgt>
<wgt id='44'> +2.7462476e+02 </wgt>
<wgt id='45'> +5.0481800e+02 </wgt>
<wgt id='46'> +5.1833899e+02 </wgt>
<wgt id='47'> +5.2400625e+02 </wgt>
<wgt id='48'> +5.0366886e+02 </wgt>
<wgt id='49'> +4.6625707e+02 </wgt>
<wgt id='50'> +5.9255931e+02 </wgt>
<wgt id='51'> +4.7546694e+02 </wgt>
<wgt id='52'> +4.7220792e+02 </wgt>
<wgt id='53'> +5.0750473e+02 </wgt>
<wgt id='54'> +5.3559237e+02 </wgt>
<wgt id='55'> +5.6246966e+02 </wgt>
<wgt id='56'> +4.8221837e+02 </wgt>
<wgt id='57'> +5.3598781e+02 </wgt>
<wgt id='58'> +4.5876471e+02 </wgt>
<wgt id='59'> +5.4774792e+02 </wgt>
<wgt id='60'> +5.0383841e+02 </wgt>
<wgt id='61'> +4.4214803e+02 </wgt>
<wgt id='62'> +4.6561557e+02 </wgt>
<wgt id='63'> +5.3155288e+02 </wgt>
<wgt id='64'> +5.0548775e+02 </wgt>
<wgt id='65'> +4.6664631e+02 </wgt>
<wgt id='66'> +5.1060841e+02 </wgt>
<wgt id='67'> +5.0819743e+02 </wgt>
<wgt id='68'> +6.1219746e+02 </wgt>
<wgt id='69'> +5.4438097e+02 </wgt>
<wgt id='70'> +5.4363197e+02 </wgt>
<wgt id='71'> +4.7144902e+02 </wgt>
<wgt id='72'> +4.6362695e+02 </wgt>
<wgt id='73'> +4.5786887e+02 </wgt>
<wgt id='74'> +5.7840066e+02 </wgt>
<wgt id='75'> +5.4909739e+02 </wgt>
<wgt id='76'> +5.1864927e+02 </wgt>
<wgt id='77'> +4.7712740e+02 </wgt>
<wgt id='78'> +4.3703968e+02 </wgt>
<wgt id='79'> +5.3896723e+02 </wgt>
<wgt id='80'> +4.4898977e+02 </wgt>
<wgt id='81'> +5.2256580e+02 </wgt>
<wgt id='82'> +4.9544374e+02 </wgt>
<wgt id='83'> +4.9832432e+02 </wgt>
<wgt id='84'> +4.9531813e+02 </wgt>
<wgt id='85'> +4.5867032e+02 </wgt>
<wgt id='86'> +5.2937898e+02 </wgt>
<wgt id='87'> +4.9805816e+02 </wgt>
<wgt id='88'> +4.9355905e+02 </wgt>
<wgt id='89'> +4.3233292e+02 </wgt>
<wgt id='90'> +4.7192380e+02 </wgt>
<wgt id='91'> +4.4360632e+02 </wgt>
<wgt id='92'> +4.7360636e+02 </wgt>
<wgt id='93'> +5.0994972e+02 </wgt>
<wgt id='94'> +4.6454613e+02 </wgt>
<wgt id='95'> +5.2966865e+02 </wgt>
<wgt id='96'> +5.2894843e+02 </wgt>
<wgt id='97'> +4.5930845e+02 </wgt>
<wgt id='98'> +5.4172197e+02 </wgt>
<wgt id='99'> +4.2588360e+02 </wgt>
<wgt id='100'> +3.8934241e+02 </wgt>
<wgt id='101'> +5.8709965e+02 </wgt>
<wgt id='102'> +5.6522724e+02 </wgt>
<wgt id='103'> +4.8466253e+02 </wgt>
<wgt id='104'> +5.3939652e+02 </wgt>
<wgt id='105'> +5.1773569e+02 </wgt>
<wgt id='106'> +4.9013533e+02 </wgt>
<wgt id='107'> +4.8894941e+02 </wgt>
<wgt id='108'> +4.7119906e+02 </wgt>
<wgt id='109'> +4.9855311e+02 </wgt>
<wgt id='110'> +4.6515467e+02 </wgt>
<wgt id='111'> +4.9049039e+02 </wgt>
<wgt id='112'> +5.2403671e+02 </wgt>
<wgt id='113'> +5.2868564e+02 </wgt>
<wgt id='114'> +5.2319096e+02 </wgt>
<wgt id='115'> +4.6414608e+02 </wgt>
<wgt id='116'> +5.5254522e+02 </wgt>
<wgt id='117'> +4.9484394e+02 </wgt>
<wgt id='118'> +5.1994251e+02 </wgt>
<wgt id='119'> +5.5121836e+02 </wgt>
<wgt id='120'> +5.0494492e+02 </wgt>
<wgt id='121'> +4.9652405e+02 </wgt>
<wgt id='122'> +4.9388099e+02 </wgt>
<wgt id='123'> +4.8213856e+02 </wgt>
<wgt id='124'> +5.6903689e+02 </wgt>
<wgt id='125'> +6.3162031e+02 </wgt>
<wgt id='126'> +4.9484956e+02 </wgt>
<wgt id='127'> +4.8402023e+02 </wgt>
<wgt id='128'> +4.8569736e+02 </wgt>
<wgt id='129'> +5.1761247e+02 </wgt>
<wgt id='130'> +4.9277938e+02 </wgt>
<wgt id='131'> +4.6708351e+02 </wgt>
<wgt id='132'> +5.5172873e+02 </wgt>
<wgt id='133'> +5.4929330e+02 </wgt>
<wgt id='134'> +5.2943363e+02 </wgt>
<wgt id='135'> +4.8391877e+02 </wgt>
<wgt id='136'> +5.9262439e+02 </wgt>
<wgt id='137'> +5.2765517e+02 </wgt>
<wgt id='138'> +5.1402473e+02 </wgt>
<wgt id='139'> +5.2039856e+02 </wgt>
<wgt id='140'> +4.9375904e+02 </wgt>
<wgt id='141'> +5.7161108e+02 </wgt>
<wgt id='142'> +3.5937896e+02 </wgt>
<wgt id='143'> +5.1755994e+02 </wgt>
<wgt id='144'> +4.6045557e+02 </wgt>
<wgt id='145'> +4.6606960e+02 </wgt>
</rwgt>
</event>
<event>
 4      1 +5.0481800e+02 1.88097300e+02 7.54677100e-03 1.16018900e-01
       -1 -1    0    0    0  501 -0.0000000000e+00 +0.0000000000e+00 +2.7743384850e+01 2.7743384850e+01 0.0000000000e+00 0.0000e+00 1.0000e+00
        1 -1    0    0  502    0 +0.0000000000e+00 -0.0000000000e+00 -2.0639181359e+03 2.0639181359e+03 0.0000000000e+00 0.0000e+00 -1.0000e+00
        6  1    1    2  502    0 -5.5522722434e+01 -4.8670692024e+01 -1.6645654725e+03 1.6751593420e+03 1.7300000000e+02 0.0000e+00 -1.0000e+00
       -6  1    1    2    0  501 +5.5522722434e+01 +4.8670692024e+01 -3.7160927854e+02 4.1650217871e+02 1.7300000000e+02 0.0000e+00 1.0000e+00
<mgrwt>
<rscale>  2 0.18809734E+03</rscale>
<asrwt>0</asrwt>
<pdfrwt beam="2">  1        1 0.31752592E+00 0.18809734E+03</pdfrwt>
<pdfrwt beam="1">  1       -1 0.42682123E-02 0.18809734E+03</pdfrwt>
<totfact> 0.69224763E+02</totfact>
</mgrwt>
<rwgt>
<wgt id='1'> +6.3262680e+02 </wgt>
<wgt id='2'> +6.7567022e+02 </wgt>
<wgt id='3'> +5.0481800e+02 </wgt>
<wgt id='4'> +6.3262680e+02 </wgt>
<wgt id='5'> +4.7085390e+02 </wgt>
<wgt id='6'> +6.2017319e+02 </wgt>
<wgt id='7'> +6.6314311e+02 </wgt>
<wgt id='8'> +4.9299169e+02 </wgt>
<wgt id='9'> +6.2017319e+02 </wgt>
<wgt id='10'> +4.5929288e+02 </wgt>
<wgt id='11'> +6.0564447e+02 </wgt>
<wgt id='12'> +6.4825994e+02 </wgt>
<wgt id='13'> +4.8001883e+02 </wgt>
<wgt id='14'> +6.0564447e+02 </wgt>
<wgt id='15'> +4.4685192e+02 </wgt>
<wgt id='16'> +5.1495518e+02 </wgt>
<wgt id='17'> +5.4554099e+02 </wgt>
<wgt id='18'> +4.2471792e+02 </wgt>
<wgt id='19'> +5.1495518e+02 </wgt>
<wgt id='20'> +3.9821216e+02 </wgt>
<wgt id='21'> +5.3542651e+02 </wgt>
<wgt id='22'> +4.1476810e+02 </wgt>
<wgt id='23'> +5.0481800e+02 </wgt>
<wgt id='24'> +3.8843474e+02 </wgt>
<wgt id='25'> +4.9299169e+02 </wgt>
<wgt id='26'> +5.2340974e+02 </wgt>
<wgt id='27'> +4.0385366e+02 </wgt>
<wgt id='28'> +4.9299169e+02 </wgt>
<wgt id='29'> +3.7791313e+02 </wgt>
<wgt id='30'> +4.3324661e+02 </wgt>
<wgt id='31'> +4.5581515e+02 </wgt>
<wgt id='32'> +3.6232726e+02 </wgt>
<wgt id='33'> +4.3324662e+02 </wgt>
<wgt id='34'> +3.4116804e+02 </wgt>
<wgt id='35'> +4.2471792e+02 </wgt>
<wgt id='36'> +4.4736421e+02 </wgt>
<wgt id='37'> +3.5383907e+02 </wgt>
<wgt id='38'> +4.2471792e+02 </wgt>
<wgt id='39'> +3.3279124e+02 </wgt>
<wgt id='40'> +4.1476810e+02 </wgt>
<wgt id='41'> +4.3732385e+02 </wgt>
<wgt id='42'> +3.4452795e+02 </wgt>
<wgt id='43'> +4.1476810e+02 </wgt>
<wgt id='44'> +3.2377686e+02 </wgt>
<wgt id='45'> +5.0481800e+02 </wgt>
<wgt id='46'> +4.9228472e+02 </wgt>
<wgt id='47'> +4.7267430e+02 </wgt>
<wgt id='48'> +5.6537139e+02 </wgt>
<wgt id='49'> +5.4013006e+02 </wgt>
<wgt id='50'> +4.1654506e+02 </wgt>
<wgt id='51'> +5.7759834e+02 </wgt>
<wgt id='52'> +4.8519082e+02 </wgt>
<wgt id='53'> +4.5578939e+02 </wgt>
<wgt id='54'> +4.8036956e+02 </wgt>
<wgt id='55'> +5.5346764e+02 </wgt>
<wgt id='56'> +5.5661974e+02 </wgt>
<wgt id='57'> +4.7569507e+02 </wgt>
<wgt id='58'> +4.5449564e+02 </wgt>
<wgt id='59'> +5.3629671e+02 </wgt>
<wgt id='60'> +4.5708525e+02 </wgt>
<wgt id='61'> +5.3416020e+02 </wgt>
<wgt id='62'> +5.4077894e+02 </wgt>
<wgt id='63'> +4.8718592e+02 </wgt>
<wgt id='64'> +4.8799040e+02 </wgt>
<wgt id='65'> +5.4158253e+02 </wgt>
<wgt id='66'> +6.2469777e+02 </wgt>
<wgt id='67'> +5.1861329e+02 </wgt>
<wgt id='68'> +3.9968788e+02 </wgt>
<wgt id='69'> +5.0082122e+02 </wgt>
<wgt id='70'> +4.4108570e+02 </wgt>
<wgt id='71'> +6.1237393e+02 </wgt>
<wgt id='72'> +5.0828938e+02 </wgt>
<wgt id='73'> +4.8429312e+02 </wgt>
<wgt id='74'> +3.9495302e+02 </wgt>
<wgt id='75'> +4.3379462e+02 </wgt>
<wgt id='76'> +4.9071397e+02 </wgt>
<wgt id='77'> +5.8791015e+02 </wgt>
<wgt id='78'> +5.1715797e+02 </wgt>
<wgt id='79'> +4.9022412e+02 </wgt>
<wgt id='80'> +5.7833084e+02 </wgt>
<wgt id='81'> +4.7727032e+02 </wgt>
<wgt id='82'> +5.5099157e+02 </wgt>
<wgt id='83'> +4.9487339e+02 </wgt>
<wgt id='84'> +5.3006213e+02 </wgt>
<wgt id='85'> +5.0446973e+02 </wgt>
<wgt id='86'> +4.6875249e+02 </wgt>
<wgt id='87'> +4.7438427e+02 </wgt>
<wgt id='88'> +4.9370437e+02 </wgt>
<wgt id='89'> +5.3076304e+02 </wgt>
<wgt id='90'> +5.4858143e+02 </wgt>
<wgt id='91'> +6.3111848e+02 </wgt>
<wgt id='92'> +5.3488209e+02 </wgt>
<wgt id='93'> +4.8016834e+02 </wgt>
<wgt id='94'> +5.3473177e+02 </wgt>
<wgt id='95'> +4.8293900e+02 </wgt>
<wgt id='96'> +4.9635688e+02 </wgt>
<wgt id='97'> +5.2335582e+02 </wgt>
<wgt id='98'> +4.9555819e+02 </wgt>
<wgt id='99'> +5.2852480e+02 </wgt>
<wgt id='100'> +6.1882454e+02 </wgt>
<wgt id='101'> +4.5531637e+02 </wgt>
<wgt id='102'> +4.5379957e+02 </wgt>
<wgt id='103'> +4.2768881e+02 </wgt>
<wgt id='104'> +6.0653092e+02 </wgt>
<wgt id='105'> +4.7150400e+02 </wgt>
<wgt id='106'> +5.1565987e+02 </wgt>
<wgt id='107'> +5.2857941e+02 </wgt>
<wgt id='108'> +5.6595527e+02 </wgt>
<wgt id='109'> +5.7386319e+02 </wgt>
<wgt id='110'> +5.0537019e+02 </wgt>
<wgt id='111'> +5.0793677e+02 </wgt>
<wgt id='112'> +4.9503962e+02 </wgt>
<wgt id='113'> +4.5936145e+02 </wgt>
<wgt id='114'> +5.8189112e+02 </wgt>
<wgt id='115'> +5.7372253e+02 </wgt>
<wgt id='116'> +5.4812261e+02 </wgt>
<wgt id='117'> +4.9978937e+02 </wgt>
<wgt id='118'> +4.3402919e+02 </wgt>
<wgt id='119'> +4.4082696e+02 </wgt>
<wgt id='120'> +4.8630292e+02 </wgt>
<wgt id='121'> +5.3816961e+02 </wgt>
<wgt id='122'> +5.0284189e+02 </wgt>
<wgt id='123'> +5.0963044e+02 </wgt>
<wgt id='124'> +3.9599482e+02 </wgt>
<wgt id='125'> +3.3031789e+02 </wgt>
<wgt id='126'> +4.9780014e+02 </wgt>
<wgt id='127'> +4.7835649e+02 </wgt>
<wgt id='128'> +6.3256344e+02 </wgt>
<wgt id='129'> +4.7022849e+02 </wgt>
<wgt id='130'> +4.9997229e+02 </wgt>
<wgt id='131'> +4.9464143e+02 </wgt>
<wgt id='132'> +4.5048575e+02 </wgt>
<wgt id='133'> +4.7445437e+02 </wgt>
<wgt id='134'> +5.0307486e+02 </wgt>
<wgt id='135'> +5.3297337e+02 </wgt>
<wgt id='136'> +4.2207089e+02 </wgt>
<wgt id='137'> +5.0585168e+02 </wgt>
<wgt id='138'> +5.3612060e+02 </wgt>
<wgt id='139'> +4.7581275e+02 </wgt>
<wgt id='140'> +4.4584775e+02 </wgt>
<wgt id='141'> +4.3859219e+02 </wgt>
<wgt id='142'> +6.1895888e+02 </wgt>
<wgt id='143'> +4.7536695e+02 </wgt>
<wgt id='144'> +5.1965933e+02 </wgt>
<wgt id='145'> +5.3224108e+02 </wgt>
</rwgt>
</event>
<event>
 4      1 +5.0481800e+02 2.98951900e+02 7.54677100e-03 1.08576600e-01
       21 -1    0    0  501  502 +0.0000000000e+00 +0.0000000000e+00 +1.2516455568e+03 1.2516455568e+03 0.0000000000e+00 0.0000e+00 -1.0000e+00
       21 -1    0    0  502  503 -0.0000000000e+00 -0.0000000000e+00 -2.0615424803e+02 2.0615424803e+02 0.0000000000e+00 0.0000e+00 1.0000e+00
        6  1    1    2  501    0 +2.4157814979e+02 +3.2912592737e+01 +1.1120462322e+03 1.1515290112e+03 1.7300000000e+02 0.0000e+00 -1.0000e+00
       -6  1    1    2    0  503 -2.4157814979e+02 -3.2912592737e+01 -6.6554923366e+01 3.0627079364e+02 1.7300000000e+02 0.0000e+00 1.0000e+00
<mgrwt>
<rscale>  2 0.29895190E+03</rscale>
<asrwt>0</asrwt>
<pdfrwt beam="1">  1       21 0.19256085E+00 0.29895190E+03</pdfrwt>
<pdfrwt beam="2">  1       21 0.31716039E-01 0.29895190E+03</pdfrwt>
<totfact> 0.13080675E+03</totfact>
</mgrwt>
<rwgt>
<wgt id='1'> +6.9837043e+02 </wgt>
<wgt id='2'> +5.2780869e+02 </wgt>
<wgt id='3'> +5.0481800e+02 </wgt>
<wgt id='4'> +6.9837043e+02 </wgt>
<wgt id='5'> +3.9969254e+02 </wgt>
<wgt id='6'> +6.0530861e+02 </wgt>
<wgt id='7'> +4.5850800e+02 </wgt>
<wgt id='8'> +4.3897418e+02 </wgt>
<wgt id='9'> +6.0530861e+02 </wgt>
<wgt id='10'> +3.4941662e+02 </wgt>
<wgt id='11'> +5.2635772e+02 </wgt>
<wgt id='12'> +4.0109046e+02 </wgt>
<wgt id='13'> +3.8437444e+02 </wgt>
<wgt id='14'> +5.2635772e+02 </wgt>
<wgt id='15'> +3.0752208e+02 </wgt>
<wgt id='16'> +5.8243011e+02 </wgt>
<wgt id='17'> +4.4748857e+02 </wgt>
<wgt id='18'> +4.2881475e+02 </wgt>
<wgt id='19'> +5.8243011e+02 </wgt>
<wgt id='20'> +3.4278802e+02 </wgt>
<wgt id='21'> +3.8873382e+02 </wgt>
<wgt id='22'> +3.7288409e+02 </wgt>
<wgt id='23'> +5.0481800e+02 </wgt>
<wgt id='24'> +2.9966993e+02 </wgt>
<wgt id='25'> +4.3897418e+02 </wgt>
<wgt id='26'> +3.4005390e+02 </wgt>
<wgt id='27'> +3.2650466e+02 </wgt>
<wgt id='28'> +4.3897418e+02 </wgt>
<wgt id='29'> +2.6373994e+02 </wgt>
<wgt id='30'> +4.9474192e+02 </wgt>
<wgt id='31'> +3.8419932e+02 </wgt>
<wgt id='32'> +3.6876737e+02 </wgt>
<wgt id='33'> +4.9474191e+02 </wgt>
<wgt id='34'> +2.9722296e+02 </wgt>
<wgt id='35'> +4.2881475e+02 </wgt>
<wgt id='36'> +3.3375438e+02 </wgt>
<wgt id='37'> +3.2066874e+02 </wgt>
<wgt id='38'> +4.2881475e+02 </wgt>
<wgt id='39'> +2.5983633e+02 </wgt>
<wgt id='40'> +3.7288410e+02 </wgt>
<wgt id='41'> +2.9195935e+02 </wgt>
<wgt id='42'> +2.8078387e+02 </wgt>
<wgt id='43'> +3.7288409e+02 </wgt>
<wgt id='44'> +2.2868233e+02 </wgt>
<wgt id='45'> +5.0481800e+02 </wgt>
<wgt id='46'> +5.2528684e+02 </wgt>
<wgt id='47'> +5.3570847e+02 </wgt>
<wgt id='48'> +5.1017628e+02 </wgt>
<wgt id='49'> +4.6645449e+02 </wgt>
<wgt id='50'> +6.3096135e+02 </wgt>
<wgt id='51'> +4.7582939e+02 </wgt>
<wgt id='52'> +4.7169558e+02 </wgt>
<wgt id='53'> +5.0668482e+02 </wgt>
<wgt id='54'> +5.3475081e+02 </wgt>
<wgt id='55'> +5.4427641e+02 </wgt>
<wgt id='56'> +4.6940096e+02 </wgt>
<wgt id='57'> +5.2927910e+02 </wgt>
<wgt id='58'> +4.5114595e+02 </wgt>
<wgt id='59'> +5.4840790e+02 </wgt>
<wgt id='60'> +5.0100472e+02 </wgt>
<wgt id='61'> +4.3251723e+02 </wgt>
<wgt id='62'> +4.6745109e+02 </wgt>
<wgt id='63'> +5.3008790e+02 </wgt>
<wgt id='64'> +4.9694581e+02 </wgt>
<wgt id='65'> +4.8584371e+02 </wgt>
<wgt id='66'> +5.1153847e+02 </wgt>
<wgt id='67'> +5.0852812e+02 </wgt>
<wgt id='68'> +6.2529565e+02 </wgt>
<wgt id='69'> +5.5835811e+02 </wgt>
<wgt id='70'> +5.4098699e+02 </wgt>
<wgt id='71'> +4.7307594e+02 </wgt>
<wgt id='72'> +4.4399799e+02 </wgt>
<wgt id='73'> +4.5319093e+02 </wgt>
<wgt id='74'> +5.8866777e+02 </wgt>
<wgt id='75'> +5.5484554e+02 </wgt>
<wgt id='76'> +5.1154528e+02 </wgt>
<wgt id='77'> +4.7746565e+02 </wgt>
<wgt id='78'> +4.3338207e+02 </wgt>
<wgt id='79'> +5.3797116e+02 </wgt>
<wgt id='80'> +4.4678212e+02 </wgt>
<wgt id='81'> +5.1708178e+02 </wgt>
<wgt id='82'> +4.9574286e+02 </wgt>
<wgt id='83'> +5.0871782e+02 </wgt>
<wgt id='84'> +5.1017602e+02 </wgt>
<wgt id='85'> +4.6507382e+02 </wgt>
<wgt id='86'> +5.3541752e+02 </wgt>
<wgt id='87'> +4.9979254e+02 </wgt>
<wgt id='88'> +5.0314830e+02 </wgt>
<wgt id='89'> +4.3640633e+02 </wgt>
<wgt id='90'> +4.7293807e+02 </wgt>
<wgt id='91'> +4.4843660e+02 </wgt>
<wgt id='92'> +4.5045828e+02 </wgt>
<wgt id='93'> +5.1300524e+02 </wgt>
<wgt id='94'> +4.5927368e+02 </wgt>
<wgt id='95'> +5.1784030e+02 </wgt>
<wgt id='96'> +5.4805646e+02 </wgt>
<wgt id='97'> +4.5806072e+02 </wgt>
<wgt id='98'> +5.4033878e+02 </wgt>
<wgt id='99'> +4.2245181e+02 </wgt>
<wgt id='100'> +3.8095496e+02 </wgt>
<wgt id='101'> +6.0430440e+02 </wgt>
<wgt id='102'> +5.7564840e+02 </wgt>
<wgt id='103'> +4.9581205e+02 </wgt>
<wgt id='104'> +5.4692358e+02 </wgt>
<wgt id='105'> +5.1238405e+02 </wgt>
<wgt id='106'> +4.6948304e+02 </wgt>
<wgt id='107'> +4.7596877e+02 </wgt>
<wgt id='108'> +4.5206209e+02 </wgt>
<wgt id='109'> +4.8450907e+02 </wgt>
<wgt id='110'> +4.6071807e+02 </wgt>
<wgt id='111'> +4.8405612e+02 </wgt>
<wgt id='112'> +5.1241405e+02 </wgt>
<wgt id='113'> +5.1444192e+02 </wgt>
<wgt id='114'> +5.0814182e+02 </wgt>
<wgt id='115'> +4.6085948e+02 </wgt>
<wgt id='116'> +5.6566071e+02 </wgt>
<wgt id='117'> +4.9501886e+02 </wgt>
<wgt id='118'> +5.3139006e+02 </wgt>
<wgt id='119'> +5.3920277e+02 </wgt>
<wgt id='120'> +5.0113072e+02 </wgt>
<wgt id='121'> +4.8679445e+02 </wgt>
<wgt id='122'> +4.9055154e+02 </wgt>
<wgt id='123'> +4.8885531e+02 </wgt>
<wgt id='124'> +5.8509454e+02 </wgt>
<wgt id='125'> +6.4729933e+02 </wgt>
<wgt id='126'> +5.0396526e+02 </wgt>
<wgt id='127'> +4.9027615e+02 </wgt>
<wgt id='128'> +4.7905094e+02 </wgt>
<wgt id='129'> +5.2863497e+02 </wgt>
<wgt id='130'> +5.0245259e+02 </wgt>
<wgt id='131'> +4.7221750e+02 </wgt>
<wgt id='132'> +5.5012981e+02 </wgt>
<wgt id='133'> +5.5546341e+02 </wgt>
<wgt id='134'> +5.2330815e+02 </wgt>
<wgt id='135'> +4.8605061e+02 </wgt>
<wgt id='136'> +5.8665810e+02 </wgt>
<wgt id='137'> +5.3044931e+02 </wgt>
<wgt id='138'> +5.2458975e+02 </wgt>
<wgt id='139'> +5.2428254e+02 </wgt>
<wgt id='140'> +4.9472939e+02 </wgt>
<wgt id='141'> +5.7556617e+02 </wgt>
<wgt id='142'> +3.5651750e+02 </wgt>
<wgt id='143'> +5.1658314e+02 </wgt>
<wgt id='144'> +4.5368978e+02 </wgt>
<wgt id='145'> +4.6872615e+02 </wgt>
</rwgt>
</event>
<event>
 4      1 +5.0481800e+02 1.89295100e+02 7.54677100e-03 1.15909900e-01
       21 -1    0    0  503  502 +0.0000000000e+00 +0.0000000000e+00 +3.6541807372e+01 3.6541807372e+01 0.0000000000e+00 0.0000e+00 1.0000e+00
       21 -1    0    0  501  503 -0.0000000000e+00 -0.0000000000e+00 -1.7313069385e+03 1.7313069385e+03 0.0000000000e+00 0.0000e+00 -1.0000e+00
        6  1    1    2  501    0 +6.9743607118e+01 -3.2240475023e+01 -1.4294395229e+03 1.4419188495e+03 1.7300000000e+02 0.0000e+00 -1.0000e+00
       -6  1    1    2    0  502 -6.9743607118e+01 +3.2240475023e+01 -2.6532560829e+02 3.2592989642e+02 1.7300000000e+02 0.0000e+00 1.0000e+00
<mgrwt>
<rscale>  2 0.18929506E+03</rscale>
<asrwt>0</asrwt>
<pdfrwt beam="1">  1       21 0.56218167E-02 0.18929506E+03</pdfrwt>
<pdfrwt beam="2">  1       21 0.26635491E+00 0.18929506E+03</pdfrwt>
<totfact> 0.11800457E+04</totfact>
</mgrwt>
<rwgt>
<wgt id='1'> +7.0010816e+02 </wgt>
<wgt id='2'> +7.4238050e+02 </wgt>
<wgt id='3'> +5.0481800e+02 </wgt>
<wgt id='4'> +7.0010817e+02 </wgt>
<wgt id='5'> +4.4441240e+02 </wgt>
<wgt id='6'> +6.1999045e+02 </wgt>
<wgt id='7'> +6.5824407e+02 </wgt>
<wgt id='8'> +4.4236620e+02 </wgt>
<wgt id='9'> +6.1999045e+02 </wgt>
<wgt id='10'> +3.9032944e+02 </wgt>
<wgt id='11'> +5.4329048e+02 </wgt>
<wgt id='12'> +5.7698900e+02 </wgt>
<wgt id='13'> +3.8992806e+02 </wgt>
<wgt id='14'> +5.4329048e+02 </wgt>
<wgt id='15'> +3.4493115e+02 </wgt>
<wgt id='16'> +5.7005266e+02 </wgt>
<wgt id='17'> +6.0118985e+02 </wgt>
<wgt id='18'> +4.2479590e+02 </wgt>
<wgt id='19'> +5.7005266e+02 </wgt>
<wgt id='20'> +3.7622614e+02 </wgt>
<wgt id='21'> +5.3305502e+02 </wgt>
<wgt id='22'> +3.7224375e+02 </wgt>
<wgt id='23'> +5.0481800e+02 </wgt>
<wgt id='24'> +3.3044114e+02 </wgt>
<wgt id='25'> +4.4236619e+02 </wgt>
<wgt id='26'> +4.6725355e+02 </wgt>
<wgt id='27'> +3.2811794e+02 </wgt>
<wgt id='28'> +4.4236620e+02 </wgt>
<wgt id='29'> +2.9200831e+02 </wgt>
<wgt id='30'> +4.7968978e+02 </wgt>
<wgt id='31'> +5.0393252e+02 </wgt>
<wgt id='32'> +3.6243556e+02 </wgt>
<wgt id='33'> +4.7968978e+02 </wgt>
<wgt id='34'> +3.2260894e+02 </wgt>
<wgt id='35'> +4.2479590e+02 </wgt>
<wgt id='36'> +4.4682019e+02 </wgt>
<wgt id='37'> +3.1759811e+02 </wgt>
<wgt id='38'> +4.2479590e+02 </wgt>
<wgt id='39'> +2.8334891e+02 </wgt>
<wgt id='40'> +3.7224375e+02 </wgt>
<wgt id='41'> +3.9166373e+02 </wgt>
<wgt id='42'> +2.7994999e+02 </wgt>
<wgt id='43'> +3.7224375e+02 </wgt>
<wgt id='44'> +2.5039326e+02 </wgt>
<wgt id='45'> +5.0481800e+02 </wgt>
<wgt id='46'> +5.1319551e+02 </wgt>
<wgt id='47'> +5.6002567e+02 </wgt>
<wgt id='48'> +5.0414259e+02 </wgt>
<wgt id='49'> +4.4676135e+02 </wgt>
<wgt id='50'> +5.9212748e+02 </wgt>
<wgt id='51'> +4.7098578e+02 </wgt>
<wgt id='52'> +4.3087904e+02 </wgt>
<wgt id='53'> +5.3654563e+02 </wgt>
<wgt id='54'> +5.4126270e+02 </wgt>
<wgt id='55'> +6.1653848e+02 </wgt>
<wgt id='56'> +4.9414945e+02 </wgt>
<wgt id='57'> +5.4597733e+02 </wgt>
<wgt id='58'> +4.3347268e+02 </wgt>
<wgt id='59'> +5.4749365e+02 </wgt>
<wgt id='60'> +4.8936170e+02 </wgt>
<wgt id='61'> +4.0086019e+02 </wgt>
<wgt id='62'> +4.4028124e+02 </wgt>
<wgt id='63'> +5.4110304e+02 </wgt>
<wgt id='64'> +5.0846247e+02 </wgt>
<wgt id='65'> +4.0625451e+02 </wgt>
<wgt id='66'> +5.2272654e+02 </wgt>
<wgt id='67'> +5.0567804e+02 </wgt>
<wgt id='68'> +6.8961314e+02 </wgt>
<wgt id='69'> +5.8917692e+02 </wgt>
<wgt id='70'> +6.1443918e+02 </wgt>
<wgt id='71'> +4.3918542e+02 </wgt>
<wgt id='72'> +4.2874818e+02 </wgt>
<wgt id='73'> +4.4316397e+02 </wgt>
<wgt id='74'> +6.3478242e+02 </wgt>
<wgt id='75'> +6.0608494e+02 </wgt>
<wgt id='76'> +5.2070029e+02 </wgt>
<wgt id='77'> +4.4824600e+02 </wgt>
<wgt id='78'> +4.1119977e+02 </wgt>
<wgt id='79'> +5.7304673e+02 </wgt>
<wgt id='80'> +4.0922587e+02 </wgt>
<wgt id='81'> +5.5169842e+02 </wgt>
<wgt id='82'> +5.0407590e+02 </wgt>
<wgt id='83'> +5.0080562e+02 </wgt>
<wgt id='84'> +4.6024448e+02 </wgt>
<wgt id='85'> +4.2459994e+02 </wgt>
<wgt id='86'> +5.5603226e+02 </wgt>
<wgt id='87'> +4.8179340e+02 </wgt>
<wgt id='88'> +5.1115532e+02 </wgt>
<wgt id='89'> +3.5347505e+02 </wgt>
<wgt id='90'> +4.2555428e+02 </wgt>
<wgt id='91'> +3.9191403e+02 </wgt>
<wgt id='92'> +4.7795363e+02 </wgt>
<wgt id='93'> +5.2211133e+02 </wgt>
<wgt id='94'> +4.4824960e+02 </wgt>
<wgt id='95'> +5.2910118e+02 </wgt>
<wgt id='96'> +5.2322067e+02 </wgt>
<wgt id='97'> +4.3059852e+02 </wgt>
<wgt id='98'> +5.9470827e+02 </wgt>
<wgt id='99'> +3.8774031e+02 </wgt>
<wgt id='100'> +3.3649462e+02 </wgt>
<wgt id='101'> +6.0296833e+02 </wgt>
<wgt id='102'> +5.8930825e+02 </wgt>
<wgt id='103'> +4.3880534e+02 </wgt>
<wgt id='104'> +5.6491602e+02 </wgt>
<wgt id='105'> +5.1452219e+02 </wgt>
<wgt id='106'> +5.1292025e+02 </wgt>
<wgt id='107'> +5.1425678e+02 </wgt>
<wgt id='108'> +4.7640937e+02 </wgt>
<wgt id='109'> +5.0585154e+02 </wgt>
<wgt id='110'> +4.2531659e+02 </wgt>
<wgt id='111'> +4.7919767e+02 </wgt>
<wgt id='112'> +5.3417858e+02 </wgt>
<wgt id='113'> +5.9375600e+02 </wgt>
<wgt id='114'> +5.1531002e+02 </wgt>
<wgt id='115'> +4.7292584e+02 </wgt>
<wgt id='116'> +5.7408891e+02 </wgt>
<wgt id='117'> +5.0763950e+02 </wgt>
<wgt id='118'> +5.0381308e+02 </wgt>
<wgt id='119'> +5.7156881e+02 </wgt>
<wgt id='120'> +5.0106196e+02 </wgt>
<wgt id='121'> +4.7171416e+02 </wgt>
<wgt id='122'> +4.8193220e+02 </wgt>
<wgt id='123'> +4.5573440e+02 </wgt>
<wgt id='124'> +5.6601327e+02 </wgt>
<wgt id='125'> +6.9969964e+02 </wgt>
<wgt id='126'> +4.7995380e+02 </wgt>
<wgt id='127'> +4.5769301e+02 </wgt>
<wgt id='128'> +5.0571749e+02 </wgt>
<wgt id='129'> +4.8251043e+02 </wgt>
<wgt id='130'> +5.1720594e+02 </wgt>
<wgt id='131'> +4.3172523e+02 </wgt>
<wgt id='132'> +5.4238872e+02 </wgt>
<wgt id='133'> +5.6407942e+02 </wgt>
<wgt id='134'> +5.5697439e+02 </wgt>
<wgt id='135'> +4.6926659e+02 </wgt>
<wgt id='136'> +6.2025608e+02 </wgt>
<wgt id='137'> +5.8420163e+02 </wgt>
<wgt id='138'> +5.4716977e+02 </wgt>
<wgt id='139'> +5.2347258e+02 </wgt>
<wgt id='140'> +4.8564790e+02 </wgt>
<wgt id='141'> +6.3860663e+02 </wgt>
<wgt id='142'> +2.6318485e+02 </wgt>
<wgt id='143'> +5.1044864e+02 </wgt>
<wgt id='144'> +4.3594207e+02 </wgt>
<wgt id='145'> +4.5121423e+02 </wgt>
</rwgt>
</event>
<event>
 4      1 +5.0481800e+02 2.62752200e+02 7.54677100e-03 1.10550100e-01
       21 -1    0    0  503  502 +0.0000000000e+00 +0.0000000000e+00 +2.9080255612e+02 2.9080255612e+02 0.0000000000e+00 0.0000e+00 -1.0000e+00
       21 -1    0    0  501  503 -0.0000000000e+00 -0.0000000000e+00 -5.4081280060e+02 5.4081280060e+02 0.0000000000e+00 0.0000e+00 1.0000e+00
        6  1    1    2  501    0 -1.8448121877e+02 -7.1248991359e+01 -4.3644952426e+02 5.0943785301e+02 1.7300000000e+02 0.0000e+00 1.0000e+00
       -6  1    1    2    0  502 +1.8448121877e+02 +7.1248991359e+01 +1.8643927979e+02 3.2217750371e+02 1.7300000000e+02 0.0000e+00 -1.0000e+00
<mgrwt>
<rscale>  2 0.26275224E+03</rscale>
<asrwt>0</asrwt>
<pdfrwt beam="1">  1       21 0.44738855E-01 0.26275224E+03</pdfrwt>
<pdfrwt beam="2">  1       21 0.83201969E-01 0.26275224E+03</pdfrwt>
<totfact> 0.57566097E+03</totfact>
</mgrwt>
<rwgt>
<wgt id='1'> +6.7270327e+02 </wgt>
<wgt id='2'> +5.4000703e+02 </wgt>
<wgt id='3'> +5.0481800e+02 </wgt>
<wgt id='4'> +6.7270327e+02 </wgt>
<wgt id='5'> +4.2948377e+02 </wgt>
<wgt id='6'> +6.0931319e+02 </wgt>
<wgt id='7'> +4.8674290e+02 </wgt>
<wgt id='8'> +4.5543866e+02 </wgt>
<wgt id='9'> +6.0931319e+02 </wgt>
<wgt id='10'> +3.8831671e+02 </wgt>
<wgt id='11'> +5.4971253e+02 </wgt>
<wgt id='12'> +4.4035858e+02 </wgt>
<wgt id='13'> +4.1241013e+02 </wgt>
<wgt id='14'> +5.4971253e+02 </wgt>
<wgt id='15'> +3.5241816e+02 </wgt>
<wgt id='16'> +5.5733689e+02 </wgt>
<wgt id='17'> +4.5603271e+02 </wgt>
<wgt id='18'> +4.2773423e+02 </wgt>
<wgt id='19'> +5.5733689e+02 </wgt>
<wgt id='20'> +3.6674323e+02 </wgt>
<wgt id='21'> +4.1105147e+02 </wgt>
<wgt id='22'> +3.8589492e+02 </wgt>
<wgt id='23'> +5.0481800e+02 </wgt>
<wgt id='24'> +3.3159001e+02 </wgt>
<wgt id='25'> +4.5543866e+02 </wgt>
<wgt id='26'> +3.7188019e+02 </wgt>
<wgt id='27'> +3.4943669e+02 </wgt>
<wgt id='28'> +4.5543866e+02 </wgt>
<wgt id='29'> +3.0093564e+02 </wgt>
<wgt id='30'> +4.7223369e+02 </wgt>
<wgt id='31'> +3.9020739e+02 </wgt>
<wgt id='32'> +3.6704798e+02 </wgt>
<wgt id='33'> +4.7223369e+02 </wgt>
<wgt id='34'> +3.1681023e+02 </wgt>
<wgt id='35'> +4.2773423e+02 </wgt>
<wgt id='36'> +3.5171890e+02 </wgt>
<wgt id='37'> +3.3114477e+02 </wgt>
<wgt id='38'> +4.2773423e+02 </wgt>
<wgt id='39'> +2.8644320e+02 </wgt>
<wgt id='40'> +3.8589492e+02 </wgt>
<wgt id='41'> +3.1820173e+02 </wgt>
<wgt id='42'> +2.9985917e+02 </wgt>
<wgt id='43'> +3.8589492e+02 </wgt>
<wgt id='44'> +2.5996250e+02 </wgt>
<wgt id='45'> +5.0481800e+02 </wgt>
<wgt id='46'> +5.2215212e+02 </wgt>
<wgt id='47'> +5.2965731e+02 </wgt>
<wgt id='48'> +5.1538778e+02 </wgt>
<wgt id='49'> +4.9843192e+02 </wgt>
<wgt id='50'> +6.3253449e+02 </wgt>
<wgt id='51'> +4.9322916e+02 </wgt>
<wgt id='52'> +5.0475568e+02 </wgt>
<wgt id='53'> +4.9647408e+02 </wgt>
<wgt id='54'> +5.1125645e+02 </wgt>
<wgt id='55'> +4.6205908e+02 </wgt>
<wgt id='56'> +4.5207051e+02 </wgt>
<wgt id='57'> +4.9891767e+02 </wgt>
<wgt id='58'> +4.8906410e+02 </wgt>
<wgt id='59'> +5.2314866e+02 </wgt>
<wgt id='60'> +5.0392886e+02 </wgt>
<wgt id='61'> +4.4139578e+02 </wgt>
<wgt id='62'> +4.9818337e+02 </wgt>
<wgt id='63'> +5.0650656e+02 </wgt>
<wgt id='64'> +4.8707109e+02 </wgt>
<wgt id='65'> +5.7859460e+02 </wgt>
<wgt id='66'> +4.9711011e+02 </wgt>
<wgt id='67'> +5.0849469e+02 </wgt>
<wgt id='68'> +5.6565729e+02 </wgt>
<wgt id='69'> +5.1483563e+02 </wgt>
<wgt id='70'> +4.9565047e+02 </wgt>
<wgt id='71'> +5.1083205e+02 </wgt>
<wgt id='72'> +4.6584197e+02 </wgt>
<wgt id='73'> +4.8643945e+02 </wgt>
<wgt id='74'> +5.4148857e+02 </wgt>
<wgt id='75'> +5.2086771e+02 </wgt>
<wgt id='76'> +4.9114685e+02 </wgt>
<wgt id='77'> +4.9679535e+02 </wgt>
<wgt id='78'> +4.7998775e+02 </wgt>
<wgt id='79'> +4.9912836e+02 </wgt>
<wgt id='80'> +4.8955157e+02 </wgt>
<wgt id='81'> +4.9093205e+02 </wgt>
<wgt id='82'> +5.0076564e+02 </wgt>
<wgt id='83'> +5.1995324e+02 </wgt>
<wgt id='84'> +5.5573555e+02 </wgt>
<wgt id='85'> +5.2207951e+02 </wgt>
<wgt id='86'> +5.1264921e+02 </wgt>
<wgt id='87'> +5.1055931e+02 </wgt>
<wgt id='88'> +5.1416046e+02 </wgt>
<wgt id='89'> +5.1761439e+02 </wgt>
<wgt id='90'> +5.1574099e+02 </wgt>
<wgt id='91'> +5.2267925e+02 </wgt>
<wgt id='92'> +4.4053164e+02 </wgt>
<wgt id='93'> +5.0589473e+02 </wgt>
<wgt id='94'> +4.8699962e+02 </wgt>
<wgt id='95'> +4.8620994e+02 </wgt>
<wgt id='96'> +5.6003052e+02 </wgt>
<wgt id='97'> +4.9810640e+02 </wgt>
<wgt id='98'> +4.9099759e+02 </wgt>
<wgt id='99'> +4.7724244e+02 </wgt>
<wgt id='100'> +4.6367541e+02 </wgt>
<wgt id='101'> +5.7034957e+02 </wgt>
<wgt id='102'> +5.2677164e+02 </wgt>
<wgt id='103'> +5.5529262e+02 </wgt>
<wgt id='104'> +5.1474294e+02 </wgt>
<wgt id='105'> +5.1482964e+02 </wgt>
<wgt id='106'> +4.4326314e+02 </wgt>
<wgt id='107'> +4.7038827e+02 </wgt>
<wgt id='108'> +4.3010499e+02 </wgt>
<wgt id='109'> +4.6299475e+02 </wgt>
<wgt id='110'> +4.9748275e+02 </wgt>
<wgt id='111'> +4.8425634e+02 </wgt>
<wgt id='112'> +4.6964857e+02 </wgt>
<wgt id='113'> +4.5688124e+02 </wgt>
<wgt id='114'> +4.8073842e+02 </wgt>
<wgt id='115'> +4.7314668e+02 </wgt>
<wgt id='116'> +5.3269427e+02 </wgt>
<wgt id='117'> +4.9859947e+02 </wgt>
<wgt id='118'> +5.3980186e+02 </wgt>
<wgt id='119'> +4.8382908e+02 </wgt>
<wgt id='120'> +4.8674768e+02 </wgt>
<wgt id='121'> +4.8638250e+02 </wgt>
<wgt id='122'> +4.9636867e+02 </wgt>
<wgt id='123'> +5.1419919e+02 </wgt>
<wgt id='124'> +5.7101651e+02 </wgt>
<wgt id='125'> +5.7354465e+02 </wgt>
<wgt id='126'> +5.2965176e+02 </wgt>
<wgt id='127'> +5.2438856e+02 </wgt>
<wgt id='128'> +4.5361738e+02 </wgt>
<wgt id='129'> +5.7512078e+02 </wgt>
<wgt id='130'> +5.0755537e+02 </wgt>
<wgt id='131'> +5.3120335e+02 </wgt>
<wgt id='132'> +5.2731028e+02 </wgt>
<wgt id='133'> +5.2396574e+02 </wgt>
<wgt id='134'> +4.8562892e+02 </wgt>
<wgt id='135'> +5.1399847e+02 </wgt>
<wgt id='136'> +5.1354874e+02 </wgt>
<wgt id='137'> +4.8571123e+02 </wgt>
<wgt id='138'> +4.8289433e+02 </wgt>
<wgt id='139'> +5.2405952e+02 </wgt>
<wgt id='140'> +5.2070351e+02 </wgt>
<wgt id='141'> +5.1449853e+02 </wgt>
<wgt id='142'> +4.7187595e+02 </wgt>
<wgt id='143'> +5.1404848e+02 </wgt>
<wgt id='144'> +4.8897524e+02 </wgt>
<wgt id='145'> +5.0335171e+02 </wgt>
</rwgt>
</event>
<event>
 4      1 +5.0481800e+02 2.08959700e+02 7.54677100e-03 1.14239200e-01
       21 -1    0    0  501  502 +0.0000000000e+00 +0.0000000000e+00 +2.3696386081e+02 2.3696386081e+02 0.0000000000e+00 0.0000e+00 -1.0000e+00
       21 -1    0    0  502  503 -0.0000000000e+00 -0.0000000000e+00 -1.8775429993e+02 1.8775429993e+02 0.0000000000e+00 0.0000e+00 1.0000e+00
        6  1    1    2  501    0 -9.7564412286e+01 -6.4933222791e+01 +5.3554682649e+01 2.1571333292e+02 1.7300000000e+02 0.0000e+00 -1.0000e+00
       -6  1    1    2    0  503 +9.7564412286e+01 +6.4933222791e+01 -4.3451217680e+00 2.0900482781e+02 1.7300000000e+02 0.0000e+00 -1.0000e+00
<mgrwt>
<rscale>  2 0.20895966E+03</rscale>
<asrwt>0</asrwt>
<pdfrwt beam="1">  1       21 0.36455979E-01 0.20895966E+03</pdfrwt>
<pdfrwt beam="2">  1       21 0.28885277E-01 0.20895966E+03</pdfrwt>
<totfact> 0.82662517E+04</totfact>
</mgrwt>
<rwgt>
<wgt id='1'> +6.4490563e+02 </wgt>
<wgt id='2'> +5.1025991e+02 </wgt>
<wgt id='3'> +5.0481800e+02 </wgt>
<wgt id='4'> +6.4490564e+02 </wgt>
<wgt id='5'> +5.0319909e+02 </wgt>
<wgt id='6'> +6.1679277e+02 </wgt>
<wgt id='7'> +4.8029620e+02 </wgt>
<wgt id='8'> +4.7514725e+02 </wgt>
<wgt id='9'> +6.1679278e+02 </wgt>
<wgt id='10'> +4.7362076e+02 </wgt>
<wgt id='11'> +5.8054068e+02 </wgt>
<wgt id='12'> +4.5184664e+02 </wgt>
<wgt id='13'> +4.4699868e+02 </wgt>
<wgt id='14'> +5.8054069e+02 </wgt>
<wgt id='15'> +4.4556162e+02 </wgt>
<wgt id='16'> +5.2782715e+02 </wgt>
<wgt id='17'> +4.3012354e+02 </wgt>
<wgt id='18'> +4.2581443e+02 </wgt>
<wgt id='19'> +5.2782716e+02 </wgt>
<wgt id='20'> +4.2452720e+02 </wgt>
<wgt id='21'> +4.0486563e+02 </wgt>
<wgt id='22'> +4.0078712e+02 </wgt>
<wgt id='23'> +5.0481800e+02 </wgt>
<wgt id='24'> +3.9957325e+02 </wgt>
<wgt id='25'> +4.7514724e+02 </wgt>
<wgt id='26'> +3.8088408e+02 </wgt>
<wgt id='27'> +3.7704378e+02 </wgt>
<wgt id='28'> +4.7514725e+02 </wgt>
<wgt id='29'> +3.7590097e+02 </wgt>
<wgt id='30'> +4.4522267e+02 </wgt>
<wgt id='31'> +3.6742992e+02 </wgt>
<wgt id='32'> +3.6395311e+02 </wgt>
<wgt id='33'> +4.4522267e+02 </wgt>
<wgt id='34'> +3.6291346e+02 </wgt>
<wgt id='35'> +4.2581443e+02 </wgt>
<wgt id='36'> +3.4585354e+02 </wgt>
<wgt id='37'> +3.4256171e+02 </wgt>
<wgt id='38'> +4.2581443e+02 </wgt>
<wgt id='39'> +3.4158119e+02 </wgt>
<wgt id='40'> +4.0078712e+02 </wgt>
<wgt id='41'> +3.2536747e+02 </wgt>
<wgt id='42'> +3.2226774e+02 </wgt>
<wgt id='43'> +4.0078712e+02 </wgt>
<wgt id='44'> +3.2134459e+02 </wgt>
<wgt id='45'> +5.0481800e+02 </wgt>
<wgt id='46'> +5.0294440e+02 </wgt>
<wgt id='47'> +5.2216575e+02 </wgt>
<wgt id='48'> +5.0532545e+02 </wgt>
<wgt id='49'> +5.0411465e+02 </wgt>
<wgt id='50'> +5.8440978e+02 </wgt>
<wgt id='51'> +4.9517682e+02 </wgt>
<wgt id='52'> +5.0117657e+02 </wgt>
<wgt id='53'> +5.1285499e+02 </wgt>
<wgt id='54'> +5.0763360e+02 </wgt>
<wgt id='55'> +4.5039472e+02 </wgt>
<wgt id='56'> +4.7208633e+02 </wgt>
<wgt id='57'> +4.9054572e+02 </wgt>
<wgt id='58'> +5.0989494e+02 </wgt>
<wgt id='59'> +4.9424987e+02 </wgt>
<wgt id='60'> +4.8145579e+02 </wgt>
<wgt id='61'> +4.9726538e+02 </wgt>
<wgt id='62'> +4.9806058e+02 </wgt>
<wgt id='63'> +5.0530880e+02 </wgt>
<wgt id='64'> +5.0202361e+02 </wgt>
<wgt id='65'> +5.9728338e+02 </wgt>
<wgt id='66'> +4.9258322e+02 </wgt>
<wgt id='67'> +5.0944427e+02 </wgt>
<wgt id='68'> +5.3800849e+02 </wgt>
<wgt id='69'> +4.9057594e+02 </wgt>
<wgt id='70'> +4.9675709e+02 </wgt>
<wgt id='71'> +5.1443503e+02 </wgt>
<wgt id='72'> +4.9317944e+02 </wgt>
<wgt id='73'> +4.9913208e+02 </wgt>
<wgt id='74'> +5.1753475e+02 </wgt>
<wgt id='75'> +5.1574734e+02 </wgt>
<wgt id='76'> +4.9004455e+02 </wgt>
<wgt id='77'> +4.8486471e+02 </wgt>
<wgt id='78'> +5.0799060e+02 </wgt>
<wgt id='79'> +4.8264640e+02 </wgt>
<wgt id='80'> +5.0150970e+02 </wgt>
<wgt id='81'> +4.9620291e+02 </wgt>
<wgt id='82'> +5.2034817e+02 </wgt>
<wgt id='83'> +5.1488523e+02 </wgt>
<wgt id='84'> +5.5425042e+02 </wgt>
<wgt id='85'> +5.3199630e+02 </wgt>
<wgt id='86'> +5.0051443e+02 </wgt>
<wgt id='87'> +5.0402666e+02 </wgt>
<wgt id='88'> +5.1364938e+02 </wgt>
<wgt id='89'> +5.1586060e+02 </wgt>
<wgt id='90'> +5.0929475e+02 </wgt>
<wgt id='91'> +5.3836917e+02 </wgt>
<wgt id='92'> +4.6714402e+02 </wgt>
<wgt id='93'> +4.9504980e+02 </wgt>
<wgt id='94'> +5.0360216e+02 </wgt>
<wgt id='95'> +4.8417501e+02 </wgt>
<wgt id='96'> +5.4378700e+02 </wgt>
<wgt id='97'> +5.1410974e+02 </wgt>
<wgt id='98'> +4.8079705e+02 </wgt>
<wgt id='99'> +4.9117312e+02 </wgt>
<wgt id='100'> +5.0463783e+02 </wgt>
<wgt id='101'> +5.2556957e+02 </wgt>
<wgt id='102'> +4.8639830e+02 </wgt>
<wgt id='103'> +5.4668179e+02 </wgt>
<wgt id='104'> +5.0322359e+02 </wgt>
<wgt id='105'> +5.2572400e+02 </wgt>
<wgt id='106'> +4.6718630e+02 </wgt>
<wgt id='107'> +5.0202492e+02 </wgt>
<wgt id='108'> +4.5560373e+02 </wgt>
<wgt id='109'> +4.7589958e+02 </wgt>
<wgt id='110'> +5.0626419e+02 </wgt>
<wgt id='111'> +4.9263760e+02 </wgt>
<wgt id='112'> +4.8385079e+02 </wgt>
<wgt id='113'> +4.6476453e+02 </wgt>
<wgt id='114'> +5.0692207e+02 </wgt>
<wgt id='115'> +5.1064540e+02 </wgt>
<wgt id='116'> +5.0140117e+02 </wgt>
<wgt id='117'> +5.1339815e+02 </wgt>
<wgt id='118'> +5.1480372e+02 </wgt>
<wgt id='119'> +4.8576587e+02 </wgt>
<wgt id='120'> +5.0607649e+02 </wgt>
<wgt id='121'> +4.9104119e+02 </wgt>
<wgt id='122'> +4.9851305e+02 </wgt>
<wgt id='123'> +5.1110447e+02 </wgt>
<wgt id='124'> +5.3511382e+02 </wgt>
<wgt id='125'> +5.3657129e+02 </wgt>
<wgt id='126'> +5.2354828e+02 </wgt>
<wgt id='127'> +5.1887611e+02 </wgt>
<wgt id='128'> +4.7134917e+02 </wgt>
<wgt id='129'> +5.7044091e+02 </wgt>
<wgt id='130'> +5.0914099e+02 </wgt>
<wgt id='131'> +5.4125283e+02 </wgt>
<wgt id='132'> +4.9568942e+02 </wgt>
<wgt id='133'> +4.9887342e+02 </wgt>
<wgt id='134'> +4.7370309e+02 </wgt>
<wgt id='135'> +5.1788783e+02 </wgt>
<wgt id='136'> +4.8068364e+02 </wgt>
<wgt id='137'> +4.7477976e+02 </wgt>
<wgt id='138'> +4.5722246e+02 </wgt>
<wgt id='139'> +5.1313890e+02 </wgt>
<wgt id='140'> +5.3838033e+02 </wgt>
<wgt id='141'> +5.0336660e+02 </wgt>
<wgt id='142'> +5.1185508e+02 </wgt>
<wgt id='143'> +4.9842629e+02 </wgt>
<wgt id='144'> +5.0576919e+02 </wgt>
<wgt id='145'> +5.0595591e+02 </wgt>
</rwgt>
</event>
<event>
 4      1 +5.0481800e+02 1.95613900e+02 7.54677100e-03 1.15349300e-01
       21 -1    0    0  501  502 +0.0000000000e+00 +0.0000000000e+00 +4.0019531341e+01 4.0019531341e+01 0.0000000000e+00 0.0000e+00 1.0000e+00
       21 -1    0    0  502  503 -0.0000000000e+00 -0.0000000000e+00 -1.0817105676e+03 1.0817105676e+03 0.0000000000e+00 0.0000e+00 -1.0000e+00
        6  1    1    2  501    0 -9.0411206545e+01 -1.2713026530e+01 -3.2976176890e+02 3.8341574242e+02 1.7300000000e+02 0.0000e+00 1.0000e+00
       -6  1    1    2    0  503 +9.0411206545e+01 +1.2713026530e+01 -7.1192926734e+02 7.3831435649e+02 1.7300000000e+02 0.0000e+00 -1.0000e+00
<mgrwt>
<rscale>  2 0.19561392E+03</rscale>
<asrwt>0</asrwt>
<pdfrwt beam="1">  1       21 0.61568515E-02 0.19561392E+03</pdfrwt>
<pdfrwt beam="2">  1       21 0.16641700E+00 0.19561392E+03</pdfrwt>
<totfact> 0.42598921E+04</totfact>
</mgrwt>
<rwgt>
<wgt id='1'> +6.6368143e+02 </wgt>
<wgt id='2'> +6.6284280e+02 </wgt>
<wgt id='3'> +5.0481800e+02 </wgt>
<wgt id='4'> +6.6368142e+02 </wgt>
<wgt id='5'> +4.9307581e+02 </wgt>
<wgt id='6'> +6.1900495e+02 </wgt>
<wgt id='7'> +6.1817250e+02 </wgt>
<wgt id='8'> +4.6333091e+02 </wgt>
<wgt id='9'> +6.1900494e+02 </wgt>
<wgt id='10'> +4.5252674e+02 </wgt>
<wgt id='11'> +5.6813371e+02 </wgt>
<wgt id='12'> +5.6736308e+02 </wgt>
<wgt id='13'> +4.2568408e+02 </wgt>
<wgt id='14'> +5.6813371e+02 </wgt>
<wgt id='15'> +4.1581262e+02 </wgt>
<wgt id='16'> +5.4125307e+02 </wgt>
<wgt id='17'> +5.4065451e+02 </wgt>
<wgt id='18'> +4.2518223e+02 </wgt>
<wgt id='19'> +5.4125307e+02 </wgt>
<wgt id='20'> +4.1587402e+02 </wgt>
<wgt id='21'> +5.0421873e+02 </wgt>
<wgt id='22'> +3.9023979e+02 </wgt>
<wgt id='23'> +5.0481800e+02 </wgt>
<wgt id='24'> +3.8167379e+02 </wgt>
<wgt id='25'> +4.6333091e+02 </wgt>
<wgt id='26'> +4.6277551e+02 </wgt>
<wgt id='27'> +3.5853181e+02 </wgt>
<wgt id='28'> +4.6333091e+02 </wgt>
<wgt id='29'> +3.5070807e+02 </wgt>
<wgt id='30'> +4.5586962e+02 </wgt>
<wgt id='31'> +4.5540193e+02 </wgt>
<wgt id='32'> +3.6298105e+02 </wgt>
<wgt id='33'> +4.5586962e+02 </wgt>
<wgt id='34'> +3.5542947e+02 </wgt>
<wgt id='35'> +4.2518223e+02 </wgt>
<wgt id='36'> +4.2471149e+02 </wgt>
<wgt id='37'> +3.3315044e+02 </wgt>
<wgt id='38'> +4.2518223e+02 </wgt>
<wgt id='39'> +3.2620002e+02 </wgt>
<wgt id='40'> +3.9023979e+02 </wgt>
<wgt id='41'> +3.8980320e+02 </wgt>
<wgt id='42'> +3.0608112e+02 </wgt>
<wgt id='43'> +3.9023979e+02 </wgt>
<wgt id='44'> +2.9973496e+02 </wgt>
<wgt id='45'> +5.0481800e+02 </wgt>
<wgt id='46'> +5.1884946e+02 </wgt>
<wgt id='47'> +5.1683765e+02 </wgt>
<wgt id='48'> +5.0437451e+02 </wgt>
<wgt id='49'> +4.7639228e+02 </wgt>
<wgt id='50'> +5.8919773e+02 </wgt>
<wgt id='51'> +4.8088341e+02 </wgt>
<wgt id='52'> +4.8630480e+02 </wgt>
<wgt id='53'> +4.9993336e+02 </wgt>
<wgt id='54'> +5.2939977e+02 </wgt>
<wgt id='55'> +5.3976027e+02 </wgt>
<wgt id='56'> +4.7603101e+02 </wgt>
<wgt id='57'> +5.3026231e+02 </wgt>
<wgt id='58'> +4.7085626e+02 </wgt>
<wgt id='59'> +5.4514587e+02 </wgt>
<wgt id='60'> +5.1038597e+02 </wgt>
<wgt id='61'> +4.5301337e+02 </wgt>
<wgt id='62'> +4.7645093e+02 </wgt>
<wgt id='63'> +5.2370611e+02 </wgt>
<wgt id='64'> +5.0362005e+02 </wgt>
<wgt id='65'> +4.8935534e+02 </wgt>
<wgt id='66'> +5.0522310e+02 </wgt>
<wgt id='67'> +5.0689475e+02 </wgt>
<wgt id='68'> +5.8823977e+02 </wgt>
<wgt id='69'> +5.2730144e+02 </wgt>
<wgt id='70'> +5.2433814e+02 </wgt>
<wgt id='71'> +4.8441397e+02 </wgt>
<wgt id='72'> +4.7638336e+02 </wgt>
<wgt id='73'> +4.6786631e+02 </wgt>
<wgt id='74'> +5.6031899e+02 </wgt>
<wgt id='75'> +5.3265147e+02 </wgt>
<wgt id='76'> +5.1459556e+02 </wgt>
<wgt id='77'> +4.8723702e+02 </wgt>
<wgt id='78'> +4.5035937e+02 </wgt>
<wgt id='79'> +5.2671281e+02 </wgt>
<wgt id='80'> +4.6371762e+02 </wgt>
<wgt id='81'> +5.1204046e+02 </wgt>
<wgt id='82'> +4.8890878e+02 </wgt>
<wgt id='83'> +4.9857105e+02 </wgt>
<wgt id='84'> +5.0592872e+02 </wgt>
<wgt id='85'> +4.7453561e+02 </wgt>
<wgt id='86'> +5.1989337e+02 </wgt>
<wgt id='87'> +5.0301606e+02 </wgt>
<wgt id='88'> +4.9301009e+02 </wgt>
<wgt id='89'> +4.6200956e+02 </wgt>
<wgt id='90'> +4.8969949e+02 </wgt>
<wgt id='91'> +4.6570251e+02 </wgt>
<wgt id='92'> +4.7248218e+02 </wgt>
<wgt id='93'> +5.0773295e+02 </wgt>
<wgt id='94'> +4.7230646e+02 </wgt>
<wgt id='95'> +5.2515458e+02 </wgt>
<wgt id='96'> +5.2691626e+02 </wgt>
<wgt id='97'> +4.7160664e+02 </wgt>
<wgt id='98'> +5.2445035e+02 </wgt>
<wgt id='99'> +4.4469354e+02 </wgt>
<wgt id='100'> +4.1550341e+02 </wgt>
<wgt id='101'> +5.7837474e+02 </wgt>
<wgt id='102'> +5.5308808e+02 </wgt>
<wgt id='103'> +5.0307366e+02 </wgt>
<wgt id='104'> +5.2720433e+02 </wgt>
<wgt id='105'> +5.1888883e+02 </wgt>
<wgt id='106'> +4.8259305e+02 </wgt>
<wgt id='107'> +4.8344480e+02 </wgt>
<wgt id='108'> +4.6555521e+02 </wgt>
<wgt id='109'> +4.9484238e+02 </wgt>
<wgt id='110'> +4.7921975e+02 </wgt>
<wgt id='111'> +4.9286902e+02 </wgt>
<wgt id='112'> +5.1132120e+02 </wgt>
<wgt id='113'> +5.0829984e+02 </wgt>
<wgt id='114'> +5.1511807e+02 </wgt>
<wgt id='115'> +4.6425772e+02 </wgt>
<wgt id='116'> +5.4251527e+02 </wgt>
<wgt id='117'> +4.9283931e+02 </wgt>
<wgt id='118'> +5.2450637e+02 </wgt>
<wgt id='119'> +5.3381016e+02 </wgt>
<wgt id='120'> +5.0218035e+02 </wgt>
<wgt id='121'> +5.0239041e+02 </wgt>
<wgt id='122'> +4.9737554e+02 </wgt>
<wgt id='123'> +4.9068262e+02 </wgt>
<wgt id='124'> +5.6607231e+02 </wgt>
<wgt id='125'> +6.0560556e+02 </wgt>
<wgt id='126'> +5.0166687e+02 </wgt>
<wgt id='127'> +4.9515288e+02 </wgt>
<wgt id='128'> +4.7511253e+02 </wgt>
<wgt id='129'> +5.3066452e+02 </wgt>
<wgt id='130'> +4.8446253e+02 </wgt>
<wgt id='131'> +4.8393212e+02 </wgt>
<wgt id='132'> +5.5147993e+02 </wgt>
<wgt id='133'> +5.4081414e+02 </wgt>
<wgt id='134'> +5.1972261e+02 </wgt>
<wgt id='135'> +4.9204888e+02 </wgt>
<wgt id='136'> +5.7659002e+02 </wgt>
<wgt id='137'> +5.1016774e+02 </wgt>
<wgt id='138'> +5.0109467e+02 </wgt>
<wgt id='139'> +5.2051847e+02 </wgt>
<wgt id='140'> +4.9844042e+02 </wgt>
<wgt id='141'> +5.4835135e+02 </wgt>
<wgt id='142'> +3.9904082e+02 </wgt>
<wgt id='143'> +5.2022197e+02 </wgt>
<wgt id='144'> +4.7234533e+02 </wgt>
<wgt id='145'> +4.7611512e+02 </wgt>
</rwgt>
</event>
<event>
 4      1 +5.0481800e+02 1.79825300e+02 7.54677100e-03 1.16797200e-01
       21 -1    0    0  503  502 +0.0000000000e+00 +0.0000000000e+00 +3.3747138182e+01 3.3747138182e+01 0.0000000000e+00 0.0000e+00 -1.0000e+00
       21 -1    0    0  501  503 -0.0000000000e+00 -0.0000000000e+00 -1.0718665111e+03 1.0718665111e+03 0.0000000000e+00 0.0000e+00 -1.0000e+00
        6  1    1    2  501    0 +4.1799302139e+01 +2.5709215238e+01 -6.9906412455e+02 7.2182255136e+02 1.7300000000e+02 0.0000e+00 -1.0000e+00
       -6  1    1    2    0  502 -4.1799302139e+01 -2.5709215238e+01 -3.3905524840e+02 3.8379109796e+02 1.7300000000e+02 0.0000e+00 -1.0000e+00
<mgrwt>
<rscale>  2 0.17982532E+03</rscale>
<asrwt>0</asrwt>
<pdfrwt beam="1">  1       21 0.51918681E-02 0.17982532E+03</pdfrwt>
<pdfrwt beam="2">  1       21 0.16490252E+00 0.17982532E+03</pdfrwt>
<totfact> 0.58951599E+04</totfact>
</mgrwt>
<rwgt>
<wgt id='1'> +6.6120177e+02 </wgt>
<wgt id='2'> +8.2289015e+02 </wgt>
<wgt id='3'> +5.0481800e+02 </wgt>
<wgt id='4'> +6.6120177e+02 </wgt>
<wgt id='5'> +4.9427564e+02 </wgt>
<wgt id='6'> +6.2146117e+02 </wgt>
<wgt id='7'> +7.7868458e+02 </wgt>
<wgt id='8'> +4.6595655e+02 </wgt>
<wgt id='9'> +6.2146117e+02 </wgt>
<wgt id='10'> +4.5599675e+02 </wgt>
<wgt id='11'> +5.7362040e+02 </wgt>
<wgt id='12'> +7.2870789e+02 </wgt>
<wgt id='13'> +4.2996083e+02 </wgt>
<wgt id='14'> +5.7362040e+02 </wgt>
<wgt id='15'> +4.2079980e+02 </wgt>
<wgt id='16'> +5.3709962e+02 </wgt>
<wgt id='17'> +6.5555978e+02 </wgt>
<wgt id='18'> +4.2413689e+02 </wgt>
<wgt id='19'> +5.3709962e+02 </wgt>
<wgt id='20'> +4.1598088e+02 </wgt>
<wgt id='21'> +6.2034318e+02 </wgt>
<wgt id='22'> +3.9148636e+02 </wgt>
<wgt id='23'> +5.0481800e+02 </wgt>
<wgt id='24'> +3.8376548e+02 </wgt>
<wgt id='25'> +4.6595655e+02 </wgt>
<wgt id='26'> +5.8052899e+02 </wgt>
<wgt id='27'> +3.6124355e+02 </wgt>
<wgt id='28'> +4.6595655e+02 </wgt>
<wgt id='29'> +3.5414383e+02 </wgt>
<wgt id='30'> +4.5125918e+02 </wgt>
<wgt id='31'> +5.3684849e+02 </wgt>
<wgt id='32'> +3.6153521e+02 </wgt>
<wgt id='33'> +4.5125919e+02 </wgt>
<wgt id='34'> +3.5494499e+02 </wgt>
<wgt id='35'> +4.2413689e+02 </wgt>
<wgt id='36'> +5.0800905e+02 </wgt>
<wgt id='37'> +3.3370383e+02 </wgt>
<wgt id='38'> +4.2413689e+02 </wgt>
<wgt id='39'> +3.2745648e+02 </wgt>
<wgt id='40'> +3.9148636e+02 </wgt>
<wgt id='41'> +4.7540456e+02 </wgt>
<wgt id='42'> +3.0792479e+02 </wgt>
<wgt id='43'> +3.9148636e+02 </wgt>
<wgt id='44'> +3.0218114e+02 </wgt>
<wgt id='45'> +5.0481800e+02 </wgt>
<wgt id='46'> +5.1893270e+02 </wgt>
<wgt id='47'> +5.1534513e+02 </wgt>
<wgt id='48'> +5.0429648e+02 </wgt>
<wgt id='49'> +4.7745138e+02 </wgt>
<wgt id='50'> +5.8642881e+02 </wgt>
<wgt id='51'> +4.8140270e+02 </wgt>
<wgt id='52'> +4.8757148e+02 </wgt>
<wgt id='53'> +4.9872624e+02 </wgt>
<wgt id='54'> +5.2898906e+02 </wgt>
<wgt id='55'> +5.3963836e+02 </wgt>
<wgt id='56'> +4.7634327e+02 </wgt>
<wgt id='57'> +5.3027054e+02 </wgt>
<wgt id='58'> +4.7228624e+02 </wgt>
<wgt id='59'> +5.4562764e+02 </wgt>
<wgt id='60'> +5.1254453e+02 </wgt>
<wgt id='61'> +4.5330364e+02 </wgt>
<wgt id='62'> +4.7740349e+02 </wgt>
<wgt id='63'> +5.2337528e+02 </wgt>
<wgt id='64'> +5.0395041e+02 </wgt>
<wgt id='65'> +4.8830292e+02 </wgt>
<wgt id='66'> +5.0476460e+02 </wgt>
<wgt id='67'> +5.0661770e+02 </wgt>
<wgt id='68'> +5.8589879e+02 </wgt>
<wgt id='69'> +5.2537877e+02 </wgt>
<wgt id='70'> +5.2298253e+02 </wgt>
<wgt id='71'> +4.8487793e+02 </wgt>
<wgt id='72'> +4.7811253e+02 </wgt>
<wgt id='73'> +4.6918727e+02 </wgt>
<wgt id='74'> +5.5890520e+02 </wgt>
<wgt id='75'> +5.3118676e+02 </wgt>
<wgt id='76'> +5.1446832e+02 </wgt>
<wgt id='77'> +4.8858094e+02 </wgt>
<wgt id='78'> +4.5115151e+02 </wgt>
<wgt id='79'> +5.2664987e+02 </wgt>
<wgt id='80'> +4.6467720e+02 </wgt>
<wgt id='81'> +5.1143107e+02 </wgt>
<wgt id='82'> +4.8808146e+02 </wgt>
<wgt id='83'> +4.9767588e+02 </wgt>
<wgt id='84'> +5.0507471e+02 </wgt>
<wgt id='85'> +4.7537128e+02 </wgt>
<wgt id='86'> +5.1907934e+02 </wgt>
<wgt id='87'> +5.0357360e+02 </wgt>
<wgt id='88'> +4.9188422e+02 </wgt>
<wgt id='89'> +4.6447244e+02 </wgt>
<wgt id='90'> +4.9126699e+02 </wgt>
<wgt id='91'> +4.6669444e+02 </wgt>
<wgt id='92'> +4.7295074e+02 </wgt>
<wgt id='93'> +5.0798681e+02 </wgt>
<wgt id='94'> +4.7296381e+02 </wgt>
<wgt id='95'> +5.2541563e+02 </wgt>
<wgt id='96'> +5.2575619e+02 </wgt>
<wgt id='97'> +4.7221444e+02 </wgt>
<wgt id='98'> +5.2327655e+02 </wgt>
<wgt id='99'> +4.4667200e+02 </wgt>
<wgt id='100'> +4.1765867e+02 </wgt>
<wgt id='101'> +5.7753127e+02 </wgt>
<wgt id='102'> +5.5248602e+02 </wgt>
<wgt id='103'> +5.0396154e+02 </wgt>
<wgt id='104'> +5.2566614e+02 </wgt>
<wgt id='105'> +5.1882527e+02 </wgt>
<wgt id='106'> +4.8288213e+02 </wgt>
<wgt id='107'> +4.8329971e+02 </wgt>
<wgt id='108'> +4.6580162e+02 </wgt>
<wgt id='109'> +4.9534301e+02 </wgt>
<wgt id='110'> +4.8075730e+02 </wgt>
<wgt id='111'> +4.9307174e+02 </wgt>
<wgt id='112'> +5.1080826e+02 </wgt>
<wgt id='113'> +5.0777548e+02 </wgt>
<wgt id='114'> +5.1476727e+02 </wgt>
<wgt id='115'> +4.6331143e+02 </wgt>
<wgt id='116'> +5.4162939e+02 </wgt>
<wgt id='117'> +4.9227147e+02 </wgt>
<wgt id='118'> +5.2478928e+02 </wgt>
<wgt id='119'> +5.3329047e+02 </wgt>
<wgt id='120'> +5.0166778e+02 </wgt>
<wgt id='121'> +5.0356141e+02 </wgt>
<wgt id='122'> +4.9782786e+02 </wgt>
<wgt id='123'> +4.9081977e+02 </wgt>
<wgt id='124'> +5.6529582e+02 </wgt>
<wgt id='125'> +6.0330876e+02 </wgt>
<wgt id='126'> +5.0203292e+02 </wgt>
<wgt id='127'> +4.9585754e+02 </wgt>
<wgt id='128'> +4.7413982e+02 </wgt>
<wgt id='129'> +5.3058962e+02 </wgt>
<wgt id='130'> +4.8298427e+02 </wgt>
<wgt id='131'> +4.8465478e+02 </wgt>
<wgt id='132'> +5.5225964e+02 </wgt>
<wgt id='133'> +5.4049023e+02 </wgt>
<wgt id='134'> +5.1970870e+02 </wgt>
<wgt id='135'> +4.9257352e+02 </wgt>
<wgt id='136'> +5.7652808e+02 </wgt>
<wgt id='137'> +5.0882542e+02 </wgt>
<wgt id='138'> +5.0004085e+02 </wgt>
<wgt id='139'> +5.2082229e+02 </wgt>
<wgt id='140'> +4.9830392e+02 </wgt>
<wgt id='141'> +5.4626591e+02 </wgt>
<wgt id='142'> +4.0183181e+02 </wgt>
<wgt id='143'> +5.2086542e+02 </wgt>
<wgt id='144'> +4.7344565e+02 </wgt>
<wgt id='145'> +4.7644540e+02 </wgt>
</rwgt>
</event>
<event>
 4      1 +5.0481800e+02 2.49863500e+02 7.54677100e-03 1.11339100e-01
       21 -1    0    0  503  502 +0.0000000000e+00 +0.0000000000e+00 +6.1749533286e+01 6.1749533286e+01 0.0000000000e+00 0.0000e+00 -1.0000e+00
       21 -1    0    0  501  503 -0.0000000000e+00 -0.0000000000e+00 -1.0114826088e+03 1.0114826088e+03 0.0000000000e+00 0.0000e+00 -1.0000e+00
        6  1    1    2  501    0 -9.5076671681e+01 +1.5317708655e+02 -4.8597922137e+02 5.4644999492e+02 1.7300000000e+02 0.0000e+00 -1.0000e+00
       -6  1    1    2    0  502 +9.5076671681e+01 -1.5317708655e+02 -4.6375385415e+02 5.2678214718e+02 1.7300000000e+02 0.0000e+00 -1.0000e+00
<mgrwt>
<rscale>  2 0.24986355E+03</rscale>
<asrwt>0</asrwt>
<pdfrwt beam="1">  1       21 0.94999294E-02 0.24986355E+03</pdfrwt>
<pdfrwt beam="2">  1       21 0.15561269E+00 0.24986355E+03</pdfrwt>
<totfact> 0.23274003E+04</totfact>
</mgrwt>
<rwgt>
<wgt id='1'> +6.6429094e+02 </wgt>
<wgt id='2'> +5.6096118e+02 </wgt>
<wgt id='3'> +5.0481800e+02 </wgt>
<wgt id='4'> +6.6429094e+02 </wgt>
<wgt id='5'> +5.0477645e+02 </wgt>
<wgt id='6'> +6.1088169e+02 </wgt>
<wgt id='7'> +5.1166777e+02 </wgt>
<wgt id='8'> +4.6066514e+02 </wgt>
<wgt id='9'> +6.1088169e+02 </wgt>
<wgt id='10'> +4.6062744e+02 </wgt>
<wgt id='11'> +5.5745218e+02 </wgt>
<wgt id='12'> +4.6743421e+02 </wgt>
<wgt id='13'> +4.2119896e+02 </wgt>
<wgt id='14'> +5.5745218e+02 </wgt>
<wgt id='15'> +4.2116479e+02 </wgt>
<wgt id='16'> +5.4895413e+02 </wgt>
<wgt id='17'> +4.7212272e+02 </wgt>
<wgt id='18'> +4.2730727e+02 </wgt>
<wgt id='19'> +5.4895413e+02 </wgt>
<wgt id='20'> +4.2727392e+02 </wgt>
<wgt id='21'> +4.3063583e+02 </wgt>
<wgt id='22'> +3.8993372e+02 </wgt>
<wgt id='23'> +5.0481800e+02 </wgt>
<wgt id='24'> +3.8990348e+02 </wgt>
<wgt id='25'> +4.6066514e+02 </wgt>
<wgt id='26'> +3.9340746e+02 </wgt>
<wgt id='27'> +3.5652726e+02 </wgt>
<wgt id='28'> +4.6066514e+02 </wgt>
<wgt id='29'> +3.5649986e+02 </wgt>
<wgt id='30'> +4.6466665e+02 </wgt>
<wgt id='31'> +4.0285988e+02 </wgt>
<wgt id='32'> +3.6636868e+02 </wgt>
<wgt id='33'> +4.6466665e+02 </wgt>
<wgt id='34'> +3.6634144e+02 </wgt>
<wgt id='35'> +4.2730727e+02 </wgt>
<wgt id='36'> +3.6745932e+02 </wgt>
<wgt id='37'> +3.3432500e+02 </wgt>
<wgt id='38'> +4.2730727e+02 </wgt>
<wgt id='39'> +3.3430030e+02 </wgt>
<wgt id='40'> +3.8993372e+02 </wgt>
<wgt id='41'> +3.3569255e+02 </wgt>
<wgt id='42'> +3.0568266e+02 </wgt>
<wgt id='43'> +3.8993372e+02 </wgt>
<wgt id='44'> +3.0566029e+02 </wgt>
<wgt id='45'> +5.0481800e+02 </wgt>
<wgt id='46'> +5.1899453e+02 </wgt>
<wgt id='47'> +5.1922849e+02 </wgt>
<wgt id='48'> +5.0560841e+02 </wgt>
<wgt id='49'> +4.7886318e+02 </wgt>
<wgt id='50'> +5.9688975e+02 </wgt>
<wgt id='51'> +4.8248041e+02 </wgt>
<wgt id='52'> +4.8877338e+02 </wgt>
<wgt id='53'> +5.0031828e+02 </wgt>
<wgt id='54'> +5.2699804e+02 </wgt>
<wgt id='55'> +5.2767725e+02 </wgt>
<wgt id='56'> +4.7167145e+02 </wgt>
<wgt id='57'> +5.2622128e+02 </wgt>
<wgt id='58'> +4.7261832e+02 </wgt>
<wgt id='59'> +5.4148388e+02 </wgt>
<wgt id='60'> +5.0709388e+02 </wgt>
<wgt id='61'> +4.5115500e+02 </wgt>
<wgt id='62'> +4.7926838e+02 </wgt>
<wgt id='63'> +5.2057351e+02 </wgt>
<wgt id='64'> +5.0125827e+02 </wgt>
<wgt id='65'> +5.0472969e+02 </wgt>
<wgt id='66'> +5.0407622e+02 </wgt>
<wgt id='67'> +5.0705779e+02 </wgt>
<wgt id='68'> +5.8449583e+02 </wgt>
<wgt id='69'> +5.2586680e+02 </wgt>
<wgt id='70'> +5.1973419e+02 </wgt>
<wgt id='71'> +4.8904880e+02 </wgt>
<wgt id='72'> +4.7561554e+02 </wgt>
<wgt id='73'> +4.6955189e+02 </wgt>
<wgt id='74'> +5.5684137e+02 </wgt>
<wgt id='75'> +5.3050487e+02 </wgt>
<wgt id='76'> +5.1182001e+02 </wgt>
<wgt id='77'> +4.8797374e+02 </wgt>
<wgt id='78'> +4.5494111e+02 </wgt>
<wgt id='79'> +5.2138053e+02 </wgt>
<wgt id='80'> +4.6778150e+02 </wgt>
<wgt id='81'> +5.0868044e+02 </wgt>
<wgt id='82'> +4.8907508e+02 </wgt>
<wgt id='83'> +5.0223381e+02 </wgt>
<wgt id='84'> +5.1421257e+02 </wgt>
<wgt id='85'> +4.8084403e+02 </wgt>
<wgt id='86'> +5.1850022e+02 </wgt>
<wgt id='87'> +5.0374221e+02 </wgt>
<wgt id='88'> +4.9722468e+02 </wgt>
<wgt id='89'> +4.6931989e+02 </wgt>
<wgt id='90'> +4.9344325e+02 </wgt>
<wgt id='91'> +4.7416474e+02 </wgt>
<wgt id='92'> +4.6857771e+02 </wgt>
<wgt id='93'> +5.0663303e+02 </wgt>
<wgt id='94'> +4.7428363e+02 </wgt>
<wgt id='95'> +5.2028617e+02 </wgt>
<wgt id='96'> +5.3079501e+02 </wgt>
<wgt id='97'> +4.7589899e+02 </wgt>
<wgt id='98'> +5.1991697e+02 </wgt>
<wgt id='99'> +4.4861619e+02 </wgt>
<wgt id='100'> +4.2228443e+02 </wgt>
<wgt id='101'> +5.7676678e+02 </wgt>
<wgt id='102'> +5.4889543e+02 </wgt>
<wgt id='103'> +5.1005417e+02 </wgt>
<wgt id='104'> +5.2606896e+02 </wgt>
<wgt id='105'> +5.1891258e+02 </wgt>
<wgt id='106'> +4.7700614e+02 </wgt>
<wgt id='107'> +4.8135547e+02 </wgt>
<wgt id='108'> +4.6079128e+02 </wgt>
<wgt id='109'> +4.9045728e+02 </wgt>
<wgt id='110'> +4.8123441e+02 </wgt>
<wgt id='111'> +4.9254565e+02 </wgt>
<wgt id='112'> +5.0515145e+02 </wgt>
<wgt id='113'> +5.0012430e+02 </wgt>
<wgt id='114'> +5.1075761e+02 </wgt>
<wgt id='115'> +4.6774641e+02 </wgt>
<wgt id='116'> +5.4081159e+02 </wgt>
<wgt id='117'> +4.9421784e+02 </wgt>
<wgt id='118'> +5.2628330e+02 </wgt>
<wgt id='119'> +5.2577474e+02 </wgt>
<wgt id='120'> +5.0171169e+02 </wgt>
<wgt id='121'> +5.0025391e+02 </wgt>
<wgt id='122'> +4.9737943e+02 </wgt>
<wgt id='123'> +4.9464015e+02 </wgt>
<wgt id='124'> +5.6681005e+02 </wgt>
<wgt id='125'> +6.0046395e+02 </wgt>
<wgt id='126'> +5.0499964e+02 </wgt>
<wgt id='127'> +4.9899836e+02 </wgt>
<wgt id='128'> +4.7263469e+02 </wgt>
<wgt id='129'> +5.3734275e+02 </wgt>
<wgt id='130'> +4.8855655e+02 </wgt>
<wgt id='131'> +4.9069914e+02 </wgt>
<wgt id='132'> +5.4756639e+02 </wgt>
<wgt id='133'> +5.3772231e+02 </wgt>
<wgt id='134'> +5.1445556e+02 </wgt>
<wgt id='135'> +4.9493885e+02 </wgt>
<wgt id='136'> +5.6716484e+02 </wgt>
<wgt id='137'> +5.0667798e+02 </wgt>
<wgt id='138'> +4.9876963e+02 </wgt>
<wgt id='139'> +5.2015257e+02 </wgt>
<wgt id='140'> +5.0164921e+02 </wgt>
<wgt id='141'> +5.4375769e+02 </wgt>
<wgt id='142'> +4.1043561e+02 </wgt>
<wgt id='143'> +5.1895618e+02 </wgt>
<wgt id='144'> +4.7457741e+02 </wgt>
<wgt id='145'> +4.8056479e+02 </wgt>
</rwgt>
</event>
<event>
 4      1 +5.0481800e+02 2.44945600e+02 7.54677100e-03 1.11654100e-01
       21 -1    0    0  503  502 +0.0000000000e+00 +0.0000000000e+00 +4.4415956567e+02 4.4415956567e+02 0.0000000000e+00 0.0000e+00 1.0000e+00
       21 -1    0    0  501  503 -0.0000000000e+00 -0.0000000000e+00 -1.9585565871e+02 1.9585565871e+02 0.0000000000e+00 0.0000e+00 -1.0000e+00
        6  1    1    2  501    0 -1.5343585198e+01 -1.7272503051e+02 -5.4105101132e+01 2.5085000247e+02 1.7300000000e+02 0.0000e+00 -1.0000e+00
       -6  1    1    2    0  502 +1.5343585198e+01 +1.7272503051e+02 +3.0240900809e+02 3.8916522191e+02 1.7300000000e+02 0.0000e+00 1.0000e+00
<mgrwt>
<rscale>  2 0.24494563E+03</rscale>
<asrwt>0</asrwt>
<pdfrwt beam="1">  1       21 0.68332241E-01 0.24494563E+03</pdfrwt>
<pdfrwt beam="2">  1       21 0.30131640E-01 0.24494563E+03</pdfrwt>
<totfact> 0.20054108E+04</totfact>
</mgrwt>
<rwgt>
<wgt id='1'> +6.5907498e+02 </wgt>
<wgt id='2'> +5.2867837e+02 </wgt>
<wgt id='3'> +5.0481800e+02 </wgt>
<wgt id='4'> +6.5907498e+02 </wgt>
<wgt id='5'> +4.7135551e+02 </wgt>
<wgt id='6'> +6.1150692e+02 </wgt>
<wgt id='7'> +4.8631984e+02 </wgt>
<wgt id='8'> +4.6453379e+02 </wgt>
<wgt id='9'> +6.1150692e+02 </wgt>
<wgt id='10'> +4.3391954e+02 </wgt>
<wgt id='11'> +5.6270900e+02 </wgt>
<wgt id='12'> +4.4813585e+02 </wgt>
<wgt id='13'> +4.2820903e+02 </wgt>
<wgt id='14'> +5.6270900e+02 </wgt>
<wgt id='15'> +4.0020717e+02 </wgt>
<wgt id='16'> +5.4408691e+02 </wgt>
<wgt id='17'> +4.4624515e+02 </wgt>
<wgt id='18'> +4.2713763e+02 </wgt>
<wgt id='19'> +5.4408691e+02 </wgt>
<wgt id='20'> +4.0028684e+02 </wgt>
<wgt id='21'> +4.1049129e+02 </wgt>
<wgt id='22'> +3.9305228e+02 </wgt>
<wgt id='23'> +5.0481800e+02 </wgt>
<wgt id='24'> +3.6849529e+02 </wgt>
<wgt id='25'> +4.6453379e+02 </wgt>
<wgt id='26'> +3.7826107e+02 </wgt>
<wgt id='27'> +3.6231709e+02 </wgt>
<wgt id='28'> +4.6453379e+02 </wgt>
<wgt id='29'> +3.3986590e+02 </wgt>
<wgt id='30'> +4.6036392e+02 </wgt>
<wgt id='31'> +3.8165566e+02 </wgt>
<wgt id='32'> +3.6609774e+02 </wgt>
<wgt id='33'> +4.6036392e+02 </wgt>
<wgt id='34'> +3.4415727e+02 </wgt>
<wgt id='35'> +4.2713763e+02 </wgt>
<wgt id='36'> +3.5107681e+02 </wgt>
<wgt id='37'> +3.3688334e+02 </wgt>
<wgt id='38'> +4.2713763e+02 </wgt>
<wgt id='39'> +3.1682363e+02 </wgt>
<wgt id='40'> +3.9305228e+02 </wgt>
<wgt id='41'> +3.2351159e+02 </wgt>
<wgt id='42'> +3.1054035e+02 </wgt>
<wgt id='43'> +3.9305228e+02 </wgt>
<wgt id='44'> +2.9220875e+02 </wgt>
<wgt id='45'> +5.0481800e+02 </wgt>
<wgt id='46'> +5.1348797e+02 </wgt>
<wgt id='47'> +5.2632532e+02 </wgt>
<wgt id='48'> +5.1103098e+02 </wgt>
<wgt id='49'> +5.0140897e+02 </wgt>
<wgt id='50'> +6.1033884e+02 </wgt>
<wgt id='51'> +4.9439711e+02 </wgt>
<wgt id='52'> +5.0352958e+02 </wgt>
<wgt id='53'> +5.0355803e+02 </wgt>
<wgt id='54'> +5.0915877e+02 </wgt>
<wgt id='55'> +4.5594198e+02 </wgt>
<wgt id='56'> +4.6078673e+02 </wgt>
<wgt id='57'> +4.9469117e+02 </wgt>
<wgt id='58'> +4.9878125e+02 </wgt>
<wgt id='59'> +5.0974161e+02 </wgt>
<wgt id='60'> +4.9397378e+02 </wgt>
<wgt id='61'> +4.6667905e+02 </wgt>
<wgt id='62'> +4.9855807e+02 </wgt>
<wgt id='63'> +5.0568245e+02 </wgt>
<wgt id='64'> +4.9328858e+02 </wgt>
<wgt id='65'> +5.8772031e+02 </wgt>
<wgt id='66'> +4.9500378e+02 </wgt>
<wgt id='67'> +5.0897245e+02 </wgt>
<wgt id='68'> +5.5254814e+02 </wgt>
<wgt id='69'> +5.0351606e+02 </wgt>
<wgt id='70'> +4.9576705e+02 </wgt>
<wgt id='71'> +5.1288475e+02 </wgt>
<wgt id='72'> +4.7791012e+02 </wgt>
<wgt id='73'> +4.9259851e+02 </wgt>
<wgt id='74'> +5.3018574e+02 </wgt>
<wgt id='75'> +5.1830606e+02 </wgt>
<wgt id='76'> +4.9036537e+02 </wgt>
<wgt id='77'> +4.9175463e+02 </wgt>
<wgt id='78'> +4.9288848e+02 </wgt>
<wgt id='79'> +4.9142016e+02 </wgt>
<wgt id='80'> +4.9539904e+02 </wgt>
<wgt id='81'> +4.9304410e+02 </wgt>
<wgt id='82'> +5.0984164e+02 </wgt>
<wgt id='83'> +5.1788071e+02 </wgt>
<wgt id='84'> +5.5554032e+02 </wgt>
<wgt id='85'> +5.2716130e+02 </wgt>
<wgt id='86'> +5.0701419e+02 </wgt>
<wgt id='87'> +5.0775738e+02 </wgt>
<wgt id='88'> +5.1414864e+02 </wgt>
<wgt id='89'> +5.1778478e+02 </wgt>
<wgt id='90'> +5.1334413e+02 </wgt>
<wgt id='91'> +5.3051670e+02 </wgt>
<wgt id='92'> +4.5215802e+02 </wgt>
<wgt id='93'> +5.0103588e+02 </wgt>
<wgt id='94'> +4.9479577e+02 </wgt>
<wgt id='95'> +4.8471615e+02 </wgt>
<wgt id='96'> +5.5299751e+02 </wgt>
<wgt id='97'> +5.0567625e+02 </wgt>
<wgt id='98'> +4.8596745e+02 </wgt>
<wgt id='99'> +4.8422320e+02 </wgt>
<wgt id='100'> +4.8272166e+02 </wgt>
<wgt id='101'> +5.4945741e+02 </wgt>
<wgt id='102'> +5.0787677e+02 </wgt>
<wgt id='103'> +5.5208220e+02 </wgt>
<wgt id='104'> +5.0915999e+02 </wgt>
<wgt id='105'> +5.1951568e+02 </wgt>
<wgt id='106'> +4.5345843e+02 </wgt>
<wgt id='107'> +4.8420978e+02 </wgt>
<wgt id='108'> +4.4102106e+02 </wgt>
<wgt id='109'> +4.6828607e+02 </wgt>
<wgt id='110'> +5.0181015e+02 </wgt>
<wgt id='111'> +4.8786764e+02 </wgt>
<wgt id='112'> +4.7526065e+02 </wgt>
<wgt id='113'> +4.5980920e+02 </wgt>
<wgt id='114'> +4.9152746e+02 </wgt>
<wgt id='115'> +4.8940980e+02 </wgt>
<wgt id='116'> +5.1814436e+02 </wgt>
<wgt id='117'> +5.0513759e+02 </wgt>
<wgt id='118'> +5.2859331e+02 </wgt>
<wgt id='119'> +4.8399817e+02 </wgt>
<wgt id='120'> +4.9441302e+02 </wgt>
<wgt id='121'> +4.8819864e+02 </wgt>
<wgt id='122'> +4.9735704e+02 </wgt>
<wgt id='123'> +5.1304910e+02 </wgt>
<wgt id='124'> +5.5442892e+02 </wgt>
<wgt id='125'> +5.5584568e+02 </wgt>
<wgt id='126'> +5.2724990e+02 </wgt>
<wgt id='127'> +5.2233979e+02 </wgt>
<wgt id='128'> +4.6119369e+02 </wgt>
<wgt id='129'> +5.7339315e+02 </wgt>
<wgt id='130'> +5.0846742e+02 </wgt>
<wgt id='131'> +5.3634144e+02 </wgt>
<wgt id='132'> +5.1271964e+02 </wgt>
<wgt id='133'> +5.1227253e+02 </wgt>
<wgt id='134'> +4.7993886e+02 </wgt>
<wgt id='135'> +5.1605902e+02 </wgt>
<wgt id='136'> +4.9767502e+02 </wgt>
<wgt id='137'> +4.8047776e+02 </wgt>
<wgt id='138'> +4.7097139e+02 </wgt>
<wgt id='139'> +5.1915312e+02 </wgt>
<wgt id='140'> +5.2876101e+02 </wgt>
<wgt id='141'> +5.0881568e+02 </wgt>
<wgt id='142'> +4.9068468e+02 </wgt>
<wgt id='143'> +5.0705176e+02 </wgt>
<wgt id='144'> +4.9688404e+02 </wgt>
<wgt id='145'> +5.0509969e+02 </wgt>
</rwgt>
</event>
<event>
 4      1 +5.0481800e+02 2.25627700e+02 7.54677100e-03 1.12975600e-01
       21 -1    0    0  503  502 +0.0000000000e+00 +0.0000000000e+00 +2.0829779570e+02 2.0829779570e+02 0.0000000000e+00 0.0000e+00 1.0000e+00
       21 -1    0    0  501  503 -0.0000000000e+00 -0.0000000000e+00 -2.9159756098e+02 2.9159756098e+02 0.0000000000e+00 0.0000e+00 1.0000e+00
        6  1    1    2  501    0 +1.3496023205e+02 -5.2579507093e+01 +5.8908765408e+01 2.3319114787e+02 1.7300000000e+02 0.0000e+00 1.0000e+00
       -6  1    1    2    0  502 -1.3496023205e+02 +5.2579507093e+01 -1.4220853069e+02 2.6670420882e+02 1.7300000000e+02 0.0000e+00 1.0000e+00
<mgrwt>
<rscale>  2 0.22562772E+03</rscale>
<asrwt>0</asrwt>
<pdfrwt beam="1">  1       21 0.32045815E-01 0.22562772E+03</pdfrwt>
<pdfrwt beam="2">  1       21 0.44861163E-01 0.22562772E+03</pdfrwt>
<totfact> 0.43958662E+04</totfact>
</mgrwt>
<rwgt>
<wgt id='1'> +6.5107721e+02 </wgt>
<wgt id='2'> +5.2409415e+02 </wgt>
<wgt id='3'> +5.0481800e+02 </wgt>
<wgt id='4'> +6.5107720e+02 </wgt>
<wgt id='5'> +4.8927015e+02 </wgt>
<wgt id='6'> +6.1414846e+02 </wgt>
<wgt id='7'> +4.8833288e+02 </wgt>
<wgt id='8'> +4.7043231e+02 </wgt>
<wgt id='9'> +6.1414845e+02 </wgt>
<wgt id='10'> +4.5596058e+02 </wgt>
<wgt id='11'> +5.7231572e+02 </wgt>
<wgt id='12'> +4.5523741e+02 </wgt>
<wgt id='13'> +4.3860187e+02 </wgt>
<wgt id='14'> +5.7231572e+02 </wgt>
<wgt id='15'> +4.2515633e+02 </wgt>
<wgt id='16'> +5.3517271e+02 </wgt>
<wgt id='17'> +4.4181524e+02 </wgt>
<wgt id='18'> +4.2643370e+02 </wgt>
<wgt id='19'> +5.3517271e+02 </wgt>
<wgt id='20'> +4.1403311e+02 </wgt>
<wgt id='21'> +4.1166823e+02 </wgt>
<wgt id='22'> +3.9738716e+02 </wgt>
<wgt id='23'> +5.0481800e+02 </wgt>
<wgt id='24'> +3.8584569e+02 </wgt>
<wgt id='25'> +4.7043231e+02 </wgt>
<wgt id='26'> +3.8376850e+02 </wgt>
<wgt id='27'> +3.7049911e+02 </wgt>
<wgt id='28'> +4.7043231e+02 </wgt>
<wgt id='29'> +3.5977834e+02 </wgt>
<wgt id='30'> +4.5207516e+02 </wgt>
<wgt id='31'> +3.7743858e+02 </wgt>
<wgt id='32'> +3.6497415e+02 </wgt>
<wgt id='33'> +4.5207516e+02 </wgt>
<wgt id='34'> +3.5490352e+02 </wgt>
<wgt id='35'> +4.2643370e+02 </wgt>
<wgt id='36'> +3.5168427e+02 </wgt>
<wgt id='37'> +3.4011393e+02 </wgt>
<wgt id='38'> +4.2643370e+02 </wgt>
<wgt id='39'> +3.3074165e+02 </wgt>
<wgt id='40'> +3.9738716e+02 </wgt>
<wgt id='41'> +3.2784979e+02 </wgt>
<wgt id='42'> +3.1710111e+02 </wgt>
<wgt id='43'> +3.9738716e+02 </wgt>
<wgt id='44'> +3.0839707e+02 </wgt>
<wgt id='45'> +5.0481800e+02 </wgt>
<wgt id='46'> +5.0703547e+02 </wgt>
<wgt id='47'> +5.2460167e+02 </wgt>
<wgt id='48'> +5.0792472e+02 </wgt>
<wgt id='49'> +5.0374933e+02 </wgt>
<wgt id='50'> +5.9621294e+02 </wgt>
<wgt id='51'> +4.9516101e+02 </wgt>
<wgt id='52'> +5.0220868e+02 </wgt>
<wgt id='53'> +5.0952639e+02 </wgt>
<wgt id='54'> +5.0769240e+02 </wgt>
<wgt id='55'> +4.4955595e+02 </wgt>
<wgt id='56'> +4.6735056e+02 </wgt>
<wgt id='57'> +4.9051686e+02 </wgt>
<wgt id='58'> +5.0601445e+02 </wgt>
<wgt id='59'> +4.9880018e+02 </wgt>
<wgt id='60'> +4.8553210e+02 </wgt>
<wgt id='61'> +4.8858956e+02 </wgt>
<wgt id='62'> +4.9880402e+02 </wgt>
<wgt id='63'> +5.0530934e+02 </wgt>
<wgt id='64'> +4.9812297e+02 </wgt>
<wgt id='65'> +5.9687351e+02 </wgt>
<wgt id='66'> +4.9339664e+02 </wgt>
<wgt id='67'> +5.0941263e+02 </wgt>
<wgt id='68'> +5.4327062e+02 </wgt>
<wgt id='69'> +4.9560271e+02 </wgt>
<wgt id='70'> +4.9591211e+02 </wgt>
<wgt id='71'> +5.1423822e+02 </wgt>
<wgt id='72'> +4.8569697e+02 </wgt>
<wgt id='73'> +4.9704048e+02 </wgt>
<wgt id='74'> +5.2221286e+02 </wgt>
<wgt id='75'> +5.1695039e+02 </wgt>
<wgt id='76'> +4.8896431e+02 </wgt>
<wgt id='77'> +4.8737711e+02 </wgt>
<wgt id='78'> +5.0312376e+02 </wgt>
<wgt id='79'> +4.8522369e+02 </wgt>
<wgt id='80'> +4.9976834e+02 </wgt>
<wgt id='81'> +4.9450245e+02 </wgt>
<wgt id='82'> +5.1777247e+02 </wgt>
<wgt id='83'> +5.1703618e+02 </wgt>
<wgt id='84'> +5.5667128e+02 </wgt>
<wgt id='85'> +5.3199285e+02 </wgt>
<wgt id='86'> +5.0311519e+02 </wgt>
<wgt id='87'> +5.0556151e+02 </wgt>
<wgt id='88'> +5.1485612e+02 </wgt>
<wgt id='89'> +5.1785958e+02 </wgt>
<wgt id='90'> +5.1091157e+02 </wgt>
<wgt id='91'> +5.3713252e+02 </wgt>
<wgt id='92'> +4.5946165e+02 </wgt>
<wgt id='93'> +4.9737525e+02 </wgt>
<wgt id='94'> +5.0049526e+02 </wgt>
<wgt id='95'> +4.8234515e+02 </wgt>
<wgt id='96'> +5.4944215e+02 </wgt>
<wgt id='97'> +5.1153505e+02 </wgt>
<wgt id='98'> +4.8171204e+02 </wgt>
<wgt id='99'> +4.8924962e+02 </wgt>
<wgt id='100'> +4.9731072e+02 </wgt>
<wgt id='101'> +5.3437047e+02 </wgt>
<wgt id='102'> +4.9364475e+02 </wgt>
<wgt id='103'> +5.5038646e+02 </wgt>
<wgt id='104'> +5.0546589e+02 </wgt>
<wgt id='105'> +5.2288938e+02 </wgt>
<wgt id='106'> +4.6016828e+02 </wgt>
<wgt id='107'> +4.9487363e+02 </wgt>
<wgt id='108'> +4.4862179e+02 </wgt>
<wgt id='109'> +4.7158722e+02 </wgt>
<wgt id='110'> +5.0481653e+02 </wgt>
<wgt id='111'> +4.9007941e+02 </wgt>
<wgt id='112'> +4.7976503e+02 </wgt>
<wgt id='113'> +4.6130214e+02 </wgt>
<wgt id='114'> +4.9981483e+02 </wgt>
<wgt id='115'> +5.0291479e+02 </wgt>
<wgt id='116'> +5.0769645e+02 </wgt>
<wgt id='117'> +5.1068871e+02 </wgt>
<wgt id='118'> +5.2049638e+02 </wgt>
<wgt id='119'> +4.8364190e+02 </wgt>
<wgt id='120'> +5.0121443e+02 </wgt>
<wgt id='121'> +4.8885316e+02 </wgt>
<wgt id='122'> +4.9763581e+02 </wgt>
<wgt id='123'> +5.1261301e+02 </wgt>
<wgt id='124'> +5.4260032e+02 </wgt>
<wgt id='125'> +5.4342025e+02 </wgt>
<wgt id='126'> +5.2613993e+02 </wgt>
<wgt id='127'> +5.2108386e+02 </wgt>
<wgt id='128'> +4.6721306e+02 </wgt>
<wgt id='129'> +5.7297581e+02 </wgt>
<wgt id='130'> +5.1027484e+02 </wgt>
<wgt id='131'> +5.4095916e+02 </wgt>
<wgt id='132'> +5.0043205e+02 </wgt>
<wgt id='133'> +5.0350724e+02 </wgt>
<wgt id='134'> +4.7467065e+02 </wgt>
<wgt id='135'> +5.1786196e+02 </wgt>
<wgt id='136'> +4.8439235e+02 </wgt>
<wgt id='137'> +4.7646849e+02 </wgt>
<wgt id='138'> +4.6221714e+02 </wgt>
<wgt id='139'> +5.1560804e+02 </wgt>
<wgt id='140'> +5.3573005e+02 </wgt>
<wgt id='141'> +5.0488843e+02 </wgt>
<wgt id='142'> +5.0586969e+02 </wgt>
<wgt id='143'> +5.0098899e+02 </wgt>
<wgt id='144'> +5.0252167e+02 </wgt>
<wgt id='145'> +5.0607906e+02 </wgt>
</rwgt>
</event>
<event>
 4      1 +5.0481800e+02 2.09762700e+02 7.54677100e-03 1.14175400e-01
       21 -1    0    0  503  502 +0.0000000000e+00 +0.0000000000e+00 +3.8770749163e+02 3.8770749163e+02 0.0000000000e+00 0.0000e+00 1.0000e+00
       21 -1    0    0  501  503 -0.0000000000e+00 -0.0000000000e+00 -1.1350857547e+02 1.1350857547e+02 0.0000000000e+00 0.0000e+00 1.0000e+00
        6  1    1    2  501    0 +3.1724197334e+01 -1.1430215593e+02 +1.3378076082e+02 2.4879248283e+02 1.7300000000e+02 0.0000e+00 1.0000e+00
       -6  1    1    2    0  502 -3.1724197334e+01 +1.1430215593e+02 +1.4041815534e+02 2.5242358427e+02 1.7300000000e+02 0.0000e+00 1.0000e+00
<mgrwt>
<rscale>  2 0.20976274E+03</rscale>
<asrwt>0</asrwt>
<pdfrwt beam="1">  1       21 0.59647306E-01 0.20976274E+03</pdfrwt>
<pdfrwt beam="2">  1       21 0.17462858E-01 0.20976274E+03</pdfrwt>
<totfact> 0.77336836E+04</totfact>
</mgrwt>
<rwgt>
<wgt id='1'> +6.4610179e+02 </wgt>
<wgt id='2'> +5.5010788e+02 </wgt>
<wgt id='3'> +5.0481800e+02 </wgt>
<wgt id='4'> +6.4610179e+02 </wgt>
<wgt id='5'> +5.0480272e+02 </wgt>
<wgt id='6'> +6.1665893e+02 </wgt>
<wgt id='7'> +5.1809249e+02 </wgt>
<wgt id='8'> +4.7426845e+02 </wgt>
<wgt id='9'> +6.1665893e+02 </wgt>
<wgt id='10'> +4.7425407e+02 </wgt>
<wgt id='11'> +5.7934122e+02 </wgt>
<wgt id='12'> +4.8658425e+02 </wgt>
<wgt id='13'> +4.4538948e+02 </wgt>
<wgt id='14'> +5.7934122e+02 </wgt>
<wgt id='15'> +4.4537597e+02 </wgt>
<wgt id='16'> +5.2892093e+02 </wgt>
<wgt id='17'> +4.6068095e+02 </wgt>
<wgt id='18'> +4.2584678e+02 </wgt>
<wgt id='19'> +5.2892093e+02 </wgt>
<wgt id='20'> +4.2583462e+02 </wgt>
<wgt id='21'> +4.3387006e+02 </wgt>
<wgt id='22'> +4.0007625e+02 </wgt>
<wgt id='23'> +5.0481800e+02 </wgt>
<wgt id='24'> +4.0006481e+02 </wgt>
<wgt id='25'> +4.7426845e+02 </wgt>
<wgt id='26'> +4.0748388e+02 </wgt>
<wgt id='27'> +3.7571496e+02 </wgt>
<wgt id='28'> +4.7426845e+02 </wgt>
<wgt id='29'> +3.7570421e+02 </wgt>
<wgt id='30'> +4.4617917e+02 </wgt>
<wgt id='31'> +3.9201039e+02 </wgt>
<wgt id='32'> +3.6400564e+02 </wgt>
<wgt id='33'> +4.4617916e+02 </wgt>
<wgt id='34'> +3.6399581e+02 </wgt>
<wgt id='35'> +4.2584678e+02 </wgt>
<wgt id='36'> +3.6919602e+02 </wgt>
<wgt id='37'> +3.4197748e+02 </wgt>
<wgt id='38'> +4.2584678e+02 </wgt>
<wgt id='39'> +3.4196824e+02 </wgt>
<wgt id='40'> +4.0007625e+02 </wgt>
<wgt id='41'> +3.4674304e+02 </wgt>
<wgt id='42'> +3.2115392e+02 </wgt>
<wgt id='43'> +4.0007625e+02 </wgt>
<wgt id='44'> +3.2114524e+02 </wgt>
<wgt id='45'> +5.0481800e+02 </wgt>
<wgt id='46'> +5.0656181e+02 </wgt>
<wgt id='47'> +5.2147816e+02 </wgt>
<wgt id='48'> +5.0648333e+02 </wgt>
<wgt id='49'> +5.0271687e+02 </wgt>
<wgt id='50'> +5.8763908e+02 </wgt>
<wgt id='51'> +4.9495994e+02 </wgt>
<wgt id='52'> +5.0273082e+02 </wgt>
<wgt id='53'> +5.0812976e+02 </wgt>
<wgt id='54'> +5.0820464e+02 </wgt>
<wgt id='55'> +4.5753486e+02 </wgt>
<wgt id='56'> +4.6908906e+02 </wgt>
<wgt id='57'> +4.9459670e+02 </wgt>
<wgt id='58'> +5.0640725e+02 </wgt>
<wgt id='59'> +5.0246008e+02 </wgt>
<wgt id='60'> +4.8879666e+02 </wgt>
<wgt id='61'> +4.8361912e+02 </wgt>
<wgt id='62'> +4.9788564e+02 </wgt>
<wgt id='63'> +5.0539244e+02 </wgt>
<wgt id='64'> +4.9907480e+02 </wgt>
<wgt id='65'> +5.8612810e+02 </wgt>
<wgt id='66'> +4.9361182e+02 </wgt>
<wgt id='67'> +5.0906579e+02 </wgt>
<wgt id='68'> +5.4249353e+02 </wgt>
<wgt id='69'> +4.9381438e+02 </wgt>
<wgt id='70'> +4.9705404e+02 </wgt>
<wgt id='71'> +5.1374148e+02 </wgt>
<wgt id='72'> +4.9134948e+02 </wgt>
<wgt id='73'> +4.9719103e+02 </wgt>
<wgt id='74'> +5.2151034e+02 </wgt>
<wgt id='75'> +5.1543348e+02 </wgt>
<wgt id='76'> +4.9222260e+02 </wgt>
<wgt id='77'> +4.8849571e+02 </wgt>
<wgt id='78'> +5.0130854e+02 </wgt>
<wgt id='79'> +4.8733044e+02 </wgt>
<wgt id='80'> +4.9922308e+02 </wgt>
<wgt id='81'> +4.9590134e+02 </wgt>
<wgt id='82'> +5.1447234e+02 </wgt>
<wgt id='83'> +5.1369390e+02 </wgt>
<wgt id='84'> +5.5050238e+02 </wgt>
<wgt id='85'> +5.2731393e+02 </wgt>
<wgt id='86'> +5.0221735e+02 </wgt>
<wgt id='87'> +5.0542840e+02 </wgt>
<wgt id='88'> +5.1172541e+02 </wgt>
<wgt id='89'> +5.1574753e+02 </wgt>
<wgt id='90'> +5.1156970e+02 </wgt>
<wgt id='91'> +5.3299805e+02 </wgt>
<wgt id='92'> +4.6617068e+02 </wgt>
<wgt id='93'> +4.9731080e+02 </wgt>
<wgt id='94'> +5.0077782e+02 </wgt>
<wgt id='95'> +4.8748908e+02 </wgt>
<wgt id='96'> +5.4280006e+02 </wgt>
<wgt id='97'> +5.1032675e+02 </wgt>
<wgt id='98'> +4.8423022e+02 </wgt>
<wgt id='99'> +4.8890800e+02 </wgt>
<wgt id='100'> +4.9667877e+02 </wgt>
<wgt id='101'> +5.3377907e+02 </wgt>
<wgt id='102'> +4.9508408e+02 </wgt>
<wgt id='103'> +5.4616845e+02 </wgt>
<wgt id='104'> +5.0432236e+02 </wgt>
<wgt id='105'> +5.2405263e+02 </wgt>
<wgt id='106'> +4.6540444e+02 </wgt>
<wgt id='107'> +4.9619309e+02 </wgt>
<wgt id='108'> +4.5282364e+02 </wgt>
<wgt id='109'> +4.7542058e+02 </wgt>
<wgt id='110'> +5.0520161e+02 </wgt>
<wgt id='111'> +4.9201684e+02 </wgt>
<wgt id='112'> +4.8135308e+02 </wgt>
<wgt id='113'> +4.6550138e+02 </wgt>
<wgt id='114'> +5.0178030e+02 </wgt>
<wgt id='115'> +5.0007929e+02 </wgt>
<wgt id='116'> +5.0673237e+02 </wgt>
<wgt id='117'> +5.0883478e+02 </wgt>
<wgt id='118'> +5.1880609e+02 </wgt>
<wgt id='119'> +4.8717109e+02 </wgt>
<wgt id='120'> +4.9950167e+02 </wgt>
<wgt id='121'> +4.9209872e+02 </wgt>
<wgt id='122'> +4.9878972e+02 </wgt>
<wgt id='123'> +5.1009251e+02 </wgt>
<wgt id='124'> +5.4092868e+02 </wgt>
<wgt id='125'> +5.4269738e+02 </wgt>
<wgt id='126'> +5.2260630e+02 </wgt>
<wgt id='127'> +5.1892349e+02 </wgt>
<wgt id='128'> +4.6744522e+02 </wgt>
<wgt id='129'> +5.6884494e+02 </wgt>
<wgt id='130'> +5.0632804e+02 </wgt>
<wgt id='131'> +5.3727604e+02 </wgt>
<wgt id='132'> +5.0545322e+02 </wgt>
<wgt id='133'> +5.0407625e+02 </wgt>
<wgt id='134'> +4.7874193e+02 </wgt>
<wgt id='135'> +5.1646617e+02 </wgt>
<wgt id='136'> +4.9109306e+02 </wgt>
<wgt id='137'> +4.7717275e+02 </wgt>
<wgt id='138'> +4.6173404e+02 </wgt>
<wgt id='139'> +5.1517373e+02 </wgt>
<wgt id='140'> +5.3282305e+02 </wgt>
<wgt id='141'> +5.0518351e+02 </wgt>
<wgt id='142'> +5.0271405e+02 </wgt>
<wgt id='143'> +5.0358229e+02 </wgt>
<wgt id='144'> +5.0345773e+02 </wgt>
<wgt id='145'> +5.0549814e+02 </wgt>
</rwgt>
</event>
<event>
 4      1 +5.0481800e+02 3.55319400e+02 7.54677100e-03 1.06045300e-01
       21 -1    0    0  503  502 +0.0000000000e+00 +0.0000000000e+00 +4.7560523627e+02 4.7560523627e+02 0.0000000000e+00 0.0000e+00 -1.0000e+00
       21 -1    0    0  501  503 -0.0000000000e+00 -0.0000000000e+00 -5.3044230214e+02 5.3044230214e+02 0.0000000000e+00 0.0000e+00 1.0000e+00
        6  1    1    2  501    0 +1.6278744165e+02 +2.6424070588e+02 -3.8295304722e+02 5.2240304189e+02 1.7300000000e+02 0.0000e+00 1.0000e+00
       -6  1    1    2    0  502 -1.6278744165e+02 -2.6424070588e+02 +3.2811598135e+02 4.8364449652e+02 1.7300000000e+02 0.0000e+00 -1.0000e+00
<mgrwt>
<rscale>  2 0.35531944E+03</rscale>
<asrwt>0</asrwt>
<pdfrwt beam="1">  1       21 0.73170036E-01 0.35531944E+03</pdfrwt>
<pdfrwt beam="2">  1       21 0.81606508E-01 0.35531944E+03</pdfrwt>
<totfact> 0.19836586E+03</totfact>
</mgrwt>
<rwgt>
<wgt id='1'> +6.7852787e+02 </wgt>
<wgt id='2'> +5.2008527e+02 </wgt>
<wgt id='3'> +5.0481800e+02 </wgt>
<wgt id='4'> +6.7852788e+02 </wgt>
<wgt id='5'> +4.3870732e+02 </wgt>
<wgt id='6'> +6.0108171e+02 </wgt>
<wgt id='7'> +4.6256561e+02 </wgt>
<wgt id='8'> +4.4923098e+02 </wgt>
<wgt id='9'> +6.0108171e+02 </wgt>
<wgt id='10'> +3.9141283e+02 </wgt>
<wgt id='11'> +5.3489480e+02 </wgt>
<wgt id='12'> +4.1353757e+02 </wgt>
<wgt id='13'> +4.0182815e+02 </wgt>
<wgt id='14'> +5.3489480e+02 </wgt>
<wgt id='15'> +3.5098710e+02 </wgt>
<wgt id='16'> +5.6986110e+02 </wgt>
<wgt id='17'> +4.4262752e+02 </wgt>
<wgt id='18'> +4.3021237e+02 </wgt>
<wgt id='19'> +5.6986110e+02 </wgt>
<wgt id='20'> +3.7617580e+02 </wgt>
<wgt id='21'> +3.9367442e+02 </wgt>
<wgt id='22'> +3.8284040e+02 </wgt>
<wgt id='23'> +5.0481800e+02 </wgt>
<wgt id='24'> +3.3562246e+02 </wgt>
<wgt id='25'> +4.4923097e+02 </wgt>
<wgt id='26'> +3.5194827e+02 </wgt>
<wgt id='27'> +3.4244310e+02 </wgt>
<wgt id='28'> +4.4923098e+02 </wgt>
<wgt id='29'> +3.0095885e+02 </wgt>
<wgt id='30'> +4.8564294e+02 </wgt>
<wgt id='31'> +3.8126818e+02 </wgt>
<wgt id='32'> +3.7100039e+02 </wgt>
<wgt id='33'> +4.8564294e+02 </wgt>
<wgt id='34'> +3.2611850e+02 </wgt>
<wgt id='35'> +4.3021237e+02 </wgt>
<wgt id='36'> +3.3910122e+02 </wgt>
<wgt id='37'> +3.3014842e+02 </wgt>
<wgt id='38'> +4.3021237e+02 </wgt>
<wgt id='39'> +2.9096155e+02 </wgt>
<wgt id='40'> +3.8284040e+02 </wgt>
<wgt id='41'> +3.0315936e+02 </wgt>
<wgt id='42'> +2.9531118e+02 </wgt>
<wgt id='43'> +3.8284040e+02 </wgt>
<wgt id='44'> +2.6091059e+02 </wgt>
<wgt id='45'> +5.0481800e+02 </wgt>
<wgt id='46'> +5.3020432e+02 </wgt>
<wgt id='47'> +5.3166884e+02 </wgt>
<wgt id='48'> +5.1917791e+02 </wgt>
<wgt id='49'> +4.9457643e+02 </wgt>
<wgt id='50'> +6.4815950e+02 </wgt>
<wgt id='51'> +4.9212201e+02 </wgt>
<wgt id='52'> +5.0507977e+02 </wgt>
<wgt id='53'> +4.8984478e+02 </wgt>
<wgt id='54'> +5.1379197e+02 </wgt>
<wgt id='55'> +4.7395263e+02 </wgt>
<wgt id='56'> +4.4599918e+02 </wgt>
<wgt id='57'> +5.0529706e+02 </wgt>
<wgt id='58'> +4.7918044e+02 </wgt>
<wgt id='59'> +5.3784704e+02 </wgt>
<wgt id='60'> +5.1461327e+02 </wgt>
<wgt id='61'> +4.1701000e+02 </wgt>
<wgt id='62'> +4.9712407e+02 </wgt>
<wgt id='63'> +5.0758759e+02 </wgt>
<wgt id='64'> +4.8182985e+02 </wgt>
<wgt id='65'> +5.6304519e+02 </wgt>
<wgt id='66'> +5.0020430e+02 </wgt>
<wgt id='67'> +5.0788447e+02 </wgt>
<wgt id='68'> +5.7827465e+02 </wgt>
<wgt id='69'> +5.2679563e+02 </wgt>
<wgt id='70'> +4.9715692e+02 </wgt>
<wgt id='71'> +5.0809677e+02 </wgt>
<wgt id='72'> +4.5657833e+02 </wgt>
<wgt id='73'> +4.8007011e+02 </wgt>
<wgt id='74'> +5.5229012e+02 </wgt>
<wgt id='75'> +5.2308755e+02 </wgt>
<wgt id='76'> +4.9397615e+02 </wgt>
<wgt id='77'> +5.0192367e+02 </wgt>
<wgt id='78'> +4.6690029e+02 </wgt>
<wgt id='79'> +5.0858165e+02 </wgt>
<wgt id='80'> +4.8330023e+02 </wgt>
<wgt id='81'> +4.9030644e+02 </wgt>
<wgt id='82'> +4.9067826e+02 </wgt>
<wgt id='83'> +5.2045426e+02 </wgt>
<wgt id='84'> +5.5183696e+02 </wgt>
<wgt id='85'> +5.1367019e+02 </wgt>
<wgt id='86'> +5.1822804e+02 </wgt>
<wgt id='87'> +5.1275466e+02 </wgt>
<wgt id='88'> +5.1285913e+02 </wgt>
<wgt id='89'> +5.1434086e+02 </wgt>
<wgt id='90'> +5.1713447e+02 </wgt>
<wgt id='91'> +5.1215889e+02 </wgt>
<wgt id='92'> +4.3353066e+02 </wgt>
<wgt id='93'> +5.1070442e+02 </wgt>
<wgt id='94'> +4.7940603e+02 </wgt>
<wgt id='95'> +4.9064224e+02 </wgt>
<wgt id='96'> +5.6260119e+02 </wgt>
<wgt id='97'> +4.8987042e+02 </wgt>
<wgt id='98'> +4.9850485e+02 </wgt>
<wgt id='99'> +4.6973331e+02 </wgt>
<wgt id='100'> +4.4505386e+02 </wgt>
<wgt id='101'> +5.9013079e+02 </wgt>
<wgt id='102'> +5.4709559e+02 </wgt>
<wgt id='103'> +5.5385158e+02 </wgt>
<wgt id='104'> +5.2086607e+02 </wgt>
<wgt id='105'> +5.1026789e+02 </wgt>
<wgt id='106'> +4.3753297e+02 </wgt>
<wgt id='107'> +4.5852031e+02 </wgt>
<wgt id='108'> +4.2379193e+02 </wgt>
<wgt id='109'> +4.6072051e+02 </wgt>
<wgt id='110'> +4.9244606e+02 </wgt>
<wgt id='111'> +4.8217290e+02 </wgt>
<wgt id='112'> +4.6643398e+02 </wgt>
<wgt id='113'> +4.5793104e+02 </wgt>
<wgt id='114'> +4.7211692e+02 </wgt>
<wgt id='115'> +4.5830854e+02 </wgt>
<wgt id='116'> +5.4707509e+02 </wgt>
<wgt id='117'> +4.9186914e+02 </wgt>
<wgt id='118'> +5.4910633e+02 </wgt>
<wgt id='119'> +4.8627289e+02 </wgt>
<wgt id='120'> +4.8001864e+02 </wgt>
<wgt id='121'> +4.8601160e+02 </wgt>
<wgt id='122'> +4.9611167e+02 </wgt>
<wgt id='123'> +5.1402944e+02 </wgt>
<wgt id='124'> +5.8529657e+02 </wgt>
<wgt id='125'> +5.9039483e+02 </wgt>
<wgt id='126'> +5.2969507e+02 </wgt>
<wgt id='127'> +5.2420456e+02 </wgt>
<wgt id='128'> +4.4876837e+02 </wgt>
<wgt id='129'> +5.7212402e+02 </wgt>
<wgt id='130'> +5.0482256e+02 </wgt>
<wgt id='131'> +5.2269289e+02 </wgt>
<wgt id='132'> +5.4343752e+02 </wgt>
<wgt id='133'> +5.3588215e+02 </wgt>
<wgt id='134'> +4.9429806e+02 </wgt>
<wgt id='135'> +5.1040927e+02 </wgt>
<wgt id='136'> +5.3326301e+02 </wgt>
<wgt id='137'> +4.9314794e+02 </wgt>
<wgt id='138'> +4.9719449e+02 </wgt>
<wgt id='139'> +5.2781666e+02 </wgt>
<wgt id='140'> +5.1075359e+02 </wgt>
<wgt id='141'> +5.2126257e+02 </wgt>
<wgt id='142'> +4.5121322e+02 </wgt>
<wgt id='143'> +5.2172712e+02 </wgt>
<wgt id='144'> +4.8120938e+02 </wgt>
<wgt id='145'> +5.0121808e+02 </wgt>
</rwgt>
</event>
<event>
 4      1 +5.0481800e+02 3.31157000e+02 7.54677100e-03 1.07062600e-01
       21 -1    0    0  501  502 +0.0000000000e+00 +0.0000000000e+00 +2.0182551929e+03 2.0182551929e+03 0.0000000000e+00 0.0000e+00 -1.0000e+00
       21 -1    0    0  502  503 -0.0000000000e+00 -0.0000000000e+00 -6.2502947229e+01 6.2502947229e+01 0.0000000000e+00 0.0000e+00 1.0000e+00
        6  1    1    2  501    0 -2.1881029377e+02 +1.7848806934e+02 +6.0181557282e+02 6.8691114363e+02 1.7300000000e+02 0.0000e+00 1.0000e+00
       -6  1    1    2    0  503 +2.1881029377e+02 -1.7848806934e+02 +1.3539366729e+03 1.3938469965e+03 1.7300000000e+02 0.0000e+00 1.0000e+00
<mgrwt>
<rscale>  2 0.33115697E+03</rscale>
<asrwt>0</asrwt>
<pdfrwt beam="1">  1       21 0.31050075E+00 0.33115697E+03</pdfrwt>
<pdfrwt beam="2">  1       21 0.96158396E-02 0.33115697E+03</pdfrwt>
<totfact> 0.22630434E+03</totfact>
</mgrwt>
<rwgt>
<wgt id='1'> +7.1320166e+02 </wgt>
<wgt id='2'> +5.3991970e+02 </wgt>
<wgt id='3'> +5.0481800e+02 </wgt>
<wgt id='4'> +7.1320166e+02 </wgt>
<wgt id='5'> +4.8818909e+02 </wgt>
<wgt id='6'> +6.0258449e+02 </wgt>
<wgt id='7'> +4.5929884e+02 </wgt>
<wgt id='8'> +4.3032603e+02 </wgt>
<wgt id='9'> +6.0258450e+02 </wgt>
<wgt id='10'> +4.1658601e+02 </wgt>
<wgt id='11'> +5.1366590e+02 </wgt>
<wgt id='12'> +3.9467584e+02 </wgt>
<wgt id='13'> +3.7049894e+02 </wgt>
<wgt id='14'> +5.1366590e+02 </wgt>
<wgt id='15'> +3.5901749e+02 </wgt>
<wgt id='16'> +5.9748805e+02 </wgt>
<wgt id='17'> +4.5830797e+02 </wgt>
<wgt id='18'> +4.2964685e+02 </wgt>
<wgt id='19'> +5.9748806e+02 </wgt>
<wgt id='20'> +4.1603782e+02 </wgt>
<wgt id='21'> +3.8987338e+02 </wgt>
<wgt id='22'> +3.6624729e+02 </wgt>
<wgt id='23'> +5.0481800e+02 </wgt>
<wgt id='24'> +3.5501722e+02 </wgt>
<wgt id='25'> +4.3032603e+02 </wgt>
<wgt id='26'> +3.3501849e+02 </wgt>
<wgt id='27'> +3.1532890e+02 </wgt>
<wgt id='28'> +4.3032603e+02 </wgt>
<wgt id='29'> +3.0595697e+02 </wgt>
<wgt id='30'> +5.0851764e+02 </wgt>
<wgt id='31'> +3.9389081e+02 </wgt>
<wgt id='32'> +3.7009634e+02 </wgt>
<wgt id='33'> +5.0851765e+02 </wgt>
<wgt id='34'> +3.5877436e+02 </wgt>
<wgt id='35'> +4.2964685e+02 </wgt>
<wgt id='36'> +3.3507500e+02 </wgt>
<wgt id='37'> +3.1548417e+02 </wgt>
<wgt id='38'> +4.2964685e+02 </wgt>
<wgt id='39'> +3.0615264e+02 </wgt>
<wgt id='40'> +3.6624729e+02 </wgt>
<wgt id='41'> +2.8793020e+02 </wgt>
<wgt id='42'> +2.7162324e+02 </wgt>
<wgt id='43'> +3.6624729e+02 </wgt>
<wgt id='44'> +2.6384504e+02 </wgt>
<wgt id='45'> +5.0481800e+02 </wgt>
<wgt id='46'> +5.1048402e+02 </wgt>
<wgt id='47'> +6.0254274e+02 </wgt>
<wgt id='48'> +5.0639613e+02 </wgt>
<wgt id='49'> +4.3994924e+02 </wgt>
<wgt id='50'> +6.1887667e+02 </wgt>
<wgt id='51'> +4.8247207e+02 </wgt>
<wgt id='52'> +4.0824076e+02 </wgt>
<wgt id='53'> +5.6560753e+02 </wgt>
<wgt id='54'> +5.3539740e+02 </wgt>
<wgt id='55'> +6.2523029e+02 </wgt>
<wgt id='56'> +4.8736406e+02 </wgt>
<wgt id='57'> +5.5148294e+02 </wgt>
<wgt id='58'> +4.1866265e+02 </wgt>
<wgt id='59'> +5.4565986e+02 </wgt>
<wgt id='60'> +4.7946081e+02 </wgt>
<wgt id='61'> +3.8550189e+02 </wgt>
<wgt id='62'> +4.3053647e+02 </wgt>
<wgt id='63'> +5.3695090e+02 </wgt>
<wgt id='64'> +5.0510259e+02 </wgt>
<wgt id='65'> +3.9229770e+02 </wgt>
<wgt id='66'> +5.2233190e+02 </wgt>
<wgt id='67'> +4.9333921e+02 </wgt>
<wgt id='68'> +7.5653863e+02 </wgt>
<wgt id='69'> +6.0962159e+02 </wgt>
<wgt id='70'> +6.7217942e+02 </wgt>
<wgt id='71'> +4.3093543e+02 </wgt>
<wgt id='72'> +4.0564846e+02 </wgt>
<wgt id='73'> +4.3043186e+02 </wgt>
<wgt id='74'> +6.7811843e+02 </wgt>
<wgt id='75'> +6.4378293e+02 </wgt>
<wgt id='76'> +5.0934973e+02 </wgt>
<wgt id='77'> +4.2907826e+02 </wgt>
<wgt id='78'> +4.0737761e+02 </wgt>
<wgt id='79'> +5.7937459e+02 </wgt>
<wgt id='80'> +3.8048881e+02 </wgt>
<wgt id='81'> +5.6022085e+02 </wgt>
<wgt id='82'> +4.9675897e+02 </wgt>
<wgt id='83'> +5.0915302e+02 </wgt>
<wgt id='84'> +4.3937986e+02 </wgt>
<wgt id='85'> +4.1838425e+02 </wgt>
<wgt id='86'> +5.6315463e+02 </wgt>
<wgt id='87'> +4.6919663e+02 </wgt>
<wgt id='88'> +5.4588032e+02 </wgt>
<wgt id='89'> +3.1402083e+02 </wgt>
<wgt id='90'> +4.0460355e+02 </wgt>
<wgt id='91'> +3.7441826e+02 </wgt>
<wgt id='92'> +4.6957396e+02 </wgt>
<wgt id='93'> +5.3467327e+02 </wgt>
<wgt id='94'> +4.3149988e+02 </wgt>
<wgt id='95'> +5.1939847e+02 </wgt>
<wgt id='96'> +5.0566498e+02 </wgt>
<wgt id='97'> +4.2097383e+02 </wgt>
<wgt id='98'> +6.2721765e+02 </wgt>
<wgt id='99'> +3.7429677e+02 </wgt>
<wgt id='100'> +3.1864719e+02 </wgt>
<wgt id='101'> +6.2091512e+02 </wgt>
<wgt id='102'> +6.0475142e+02 </wgt>
<wgt id='103'> +4.2455915e+02 </wgt>
<wgt id='104'> +5.7529651e+02 </wgt>
<wgt id='105'> +5.1714840e+02 </wgt>
<wgt id='106'> +5.1480703e+02 </wgt>
<wgt id='107'> +5.2709724e+02 </wgt>
<wgt id='108'> +4.6109473e+02 </wgt>
<wgt id='109'> +5.0651669e+02 </wgt>
<wgt id='110'> +3.9319814e+02 </wgt>
<wgt id='111'> +4.7064992e+02 </wgt>
<wgt id='112'> +5.2015171e+02 </wgt>
<wgt id='113'> +6.2272956e+02 </wgt>
<wgt id='114'> +4.6435539e+02 </wgt>
<wgt id='115'> +4.8835385e+02 </wgt>
<wgt id='116'> +5.8933560e+02 </wgt>
<wgt id='117'> +5.2392646e+02 </wgt>
<wgt id='118'> +5.0071667e+02 </wgt>
<wgt id='119'> +5.4537509e+02 </wgt>
<wgt id='120'> +4.9015798e+02 </wgt>
<wgt id='121'> +4.5414721e+02 </wgt>
<wgt id='122'> +4.6928862e+02 </wgt>
<wgt id='123'> +4.4447238e+02 </wgt>
<wgt id='124'> +5.6815988e+02 </wgt>
<wgt id='125'> +7.4968540e+02 </wgt>
<wgt id='126'> +4.7689076e+02 </wgt>
<wgt id='127'> +4.5254710e+02 </wgt>
<wgt id='128'> +5.0697240e+02 </wgt>
<wgt id='129'> +4.7458210e+02 </wgt>
<wgt id='130'> +4.8779823e+02 </wgt>
<wgt id='131'> +4.2493885e+02 </wgt>
<wgt id='132'> +5.3117411e+02 </wgt>
<wgt id='133'> +5.6275521e+02 </wgt>
<wgt id='134'> +5.7312198e+02 </wgt>
<wgt id='135'> +4.7039720e+02 </wgt>
<wgt id='136'> +6.2523765e+02 </wgt>
<wgt id='137'> +6.0990333e+02 </wgt>
<wgt id='138'> +5.7389804e+02 </wgt>
<wgt id='139'> +5.3006474e+02 </wgt>
<wgt id='140'> +4.8265346e+02 </wgt>
<wgt id='141'> +6.8378097e+02 </wgt>
<wgt id='142'> +2.2900847e+02 </wgt>
<wgt id='143'> +5.1093534e+02 </wgt>
<wgt id='144'> +4.2661635e+02 </wgt>
<wgt id='145'> +4.5290389e+02 </wgt>
</rwgt>
</event>
<event>
 4      1 +5.0481800e+02 2.43478500e+02 7.54677100e-03 1.11749700e-01
       21 -1    0    0  503  502 +0.0000000000e+00 +0.0000000000e+00 +1.5279938412e+03 1.5279938412e+03 0.0000000000e+00 0.0000e+00 -1.0000e+00
       21 -1    0    0  501  503 -0.0000000000e+00 -0.0000000000e+00 -5.0026931628e+01 5.0026931628e+01 0.0000000000e+00 0.0000e+00 -1.0000e+00
        6  1    1    2  501    0 +6.2013208861e+01 -1.5970950966e+02 +3.6515964632e+02 4.3888874769e+02 1.7300000000e+02 0.0000e+00 -1.0000e+00
       -6  1    1    2    0  502 -6.2013208861e+01 +1.5970950966e+02 +1.1128072633e+03 1.1391320252e+03 1.7300000000e+02 0.0000e+00 -1.0000e+00
<mgrwt>
<rscale>  2 0.24347847E+03</rscale>
<asrwt>0</asrwt>
<pdfrwt beam="1">  1       21 0.23507594E+00 0.24347847E+03</pdfrwt>
<pdfrwt beam="2">  1       21 0.76964522E-02 0.24347847E+03</pdfrwt>
<totfact> 0.10029016E+04</totfact>
</mgrwt>
<rwgt>
<wgt id='1'> +6.8832103e+02 </wgt>
<wgt id='2'> +5.7651012e+02 </wgt>
<wgt id='3'> +5.0481800e+02 </wgt>
<wgt id='4'> +6.8832103e+02 </wgt>
<wgt id='5'> +4.7799053e+02 </wgt>
<wgt id='6'> +6.1169653e+02 </wgt>
<wgt id='7'> +5.0910726e+02 </wgt>
<wgt id='8'> +4.4647758e+02 </wgt>
<wgt id='9'> +6.1169653e+02 </wgt>
<wgt id='10'> +4.2313375e+02 </wgt>
<wgt id='11'> +5.4100445e+02 </wgt>
<wgt id='12'> +4.5155057e+02 </wgt>
<wgt id='13'> +3.9689911e+02 </wgt>
<wgt id='14'> +5.4100445e+02 </wgt>
<wgt id='15'> +3.7650840e+02 </wgt>
<wgt id='16'> +5.6805431e+02 </wgt>
<wgt id='17'> +4.8437559e+02 </wgt>
<wgt id='18'> +4.2708609e+02 </wgt>
<wgt id='19'> +5.6805431e+02 </wgt>
<wgt id='20'> +4.0541042e+02 </wgt>
<wgt id='21'> +4.2774467e+02 </wgt>
<wgt id='22'> +3.7772894e+02 </wgt>
<wgt id='23'> +5.0481800e+02 </wgt>
<wgt id='24'> +3.5888333e+02 </wgt>
<wgt id='25'> +4.4647758e+02 </wgt>
<wgt id='26'> +3.7938635e+02 </wgt>
<wgt id='27'> +3.3578456e+02 </wgt>
<wgt id='28'> +4.4647758e+02 </wgt>
<wgt id='29'> +3.1933777e+02 </wgt>
<wgt id='30'> +4.8058527e+02 </wgt>
<wgt id='31'> +4.1288504e+02 </wgt>
<wgt id='32'> +3.6601557e+02 </wgt>
<wgt id='33'> +4.8058527e+02 </wgt>
<wgt id='34'> +3.4818800e+02 </wgt>
<wgt id='35'> +4.2708609e+02 </wgt>
<wgt id='36'> +3.6461246e+02 </wgt>
<wgt id='37'> +3.2371617e+02 </wgt>
<wgt id='38'> +4.2708609e+02 </wgt>
<wgt id='39'> +3.0822806e+02 </wgt>
<wgt id='40'> +3.7772894e+02 </wgt>
<wgt id='41'> +3.2339151e+02 </wgt>
<wgt id='42'> +2.8776956e+02 </wgt>
<wgt id='43'> +3.7772894e+02 </wgt>
<wgt id='44'> +2.7426424e+02 </wgt>
<wgt id='45'> +5.0481800e+02 </wgt>
<wgt id='46'> +5.1556498e+02 </wgt>
<wgt id='47'> +5.4256077e+02 </wgt>
<wgt id='48'> +5.0367989e+02 </wgt>
<wgt id='49'> +4.5442000e+02 </wgt>
<wgt id='50'> +5.9380976e+02 </wgt>
<wgt id='51'> +4.7173231e+02 </wgt>
<wgt id='52'> +4.4877450e+02 </wgt>
<wgt id='53'> +5.2328446e+02 </wgt>
<wgt id='54'> +5.3968218e+02 </wgt>
<wgt id='55'> +5.9216079e+02 </wgt>
<wgt id='56'> +4.8960789e+02 </wgt>
<wgt id='57'> +5.4092901e+02 </wgt>
<wgt id='58'> +4.4358343e+02 </wgt>
<wgt id='59'> +5.4684369e+02 </wgt>
<wgt id='60'> +4.9358487e+02 </wgt>
<wgt id='61'> +4.1810699e+02 </wgt>
<wgt id='62'> +4.5089154e+02 </wgt>
<wgt id='63'> +5.3815100e+02 </wgt>
<wgt id='64'> +5.0669288e+02 </wgt>
<wgt id='65'> +4.3379986e+02 </wgt>
<wgt id='66'> +5.1827805e+02 </wgt>
<wgt id='67'> +5.0834360e+02 </wgt>
<wgt id='68'> +6.5318228e+02 </wgt>
<wgt id='69'> +5.7103150e+02 </wgt>
<wgt id='70'> +5.8073669e+02 </wgt>
<wgt id='71'> +4.5318579e+02 </wgt>
<wgt id='72'> +4.4309387e+02 </wgt>
<wgt id='73'> +4.4826044e+02 </wgt>
<wgt id='74'> +6.0848344e+02 </wgt>
<wgt id='75'> +5.7949908e+02 </wgt>
<wgt id='76'> +5.2041597e+02 </wgt>
<wgt id='77'> +4.6052799e+02 </wgt>
<wgt id='78'> +4.2194393e+02 </wgt>
<wgt id='79'> +5.5735623e+02 </wgt>
<wgt id='80'> +4.2715828e+02 </wgt>
<wgt id='81'> +5.3901837e+02 </wgt>
<wgt id='82'> +5.0320160e+02 </wgt>
<wgt id='83'> +5.0046812e+02 </wgt>
<wgt id='84'> +4.7776670e+02 </wgt>
<wgt id='85'> +4.3873950e+02 </wgt>
<wgt id='86'> +5.4451246e+02 </wgt>
<wgt id='87'> +4.8889155e+02 </wgt>
<wgt id='88'> +5.0217102e+02 </wgt>
<wgt id='89'> +3.8756886e+02 </wgt>
<wgt id='90'> +4.4502946e+02 </wgt>
<wgt id='91'> +4.1415750e+02 </wgt>
<wgt id='92'> +4.7548693e+02 </wgt>
<wgt id='93'> +5.1550834e+02 </wgt>
<wgt id='94'> +4.5532101e+02 </wgt>
<wgt id='95'> +5.2954515e+02 </wgt>
<wgt id='96'> +5.2869573e+02 </wgt>
<wgt id='97'> +4.4302553e+02 </wgt>
<wgt id='98'> +5.7058704e+02 </wgt>
<wgt id='99'> +4.0310410e+02 </wgt>
<wgt id='100'> +3.5838533e+02 </wgt>
<wgt id='101'> +5.9590976e+02 </wgt>
<wgt id='102'> +5.7897441e+02 </wgt>
<wgt id='103'> +4.5803541e+02 </wgt>
<wgt id='104'> +5.5549077e+02 </wgt>
<wgt id='105'> +5.1527599e+02 </wgt>
<wgt id='106'> +5.0210846e+02 </wgt>
<wgt id='107'> +5.0208728e+02 </wgt>
<wgt id='108'> +4.7618649e+02 </wgt>
<wgt id='109'> +5.0218835e+02 </wgt>
<wgt id='110'> +4.4273625e+02 </wgt>
<wgt id='111'> +4.8451248e+02 </wgt>
<wgt id='112'> +5.3267519e+02 </wgt>
<wgt id='113'> +5.6335199e+02 </wgt>
<wgt id='114'> +5.2320980e+02 </wgt>
<wgt id='115'> +4.6917586e+02 </wgt>
<wgt id='116'> +5.6525690e+02 </wgt>
<wgt id='117'> +5.0146647e+02 </wgt>
<wgt id='118'> +5.1080259e+02 </wgt>
<wgt id='119'> +5.6662453e+02 </wgt>
<wgt id='120'> +5.0403712e+02 </wgt>
<wgt id='121'> +4.8251543e+02 </wgt>
<wgt id='122'> +4.8710765e+02 </wgt>
<wgt id='123'> +4.6795789e+02 </wgt>
<wgt id='124'> +5.6778887e+02 </wgt>
<wgt id='125'> +6.6909372e+02 </wgt>
<wgt id='126'> +4.8634657e+02 </wgt>
<wgt id='127'> +4.6856839e+02 </wgt>
<wgt id='128'> +4.9953127e+02 </wgt>
<wgt id='129'> +4.9746002e+02 </wgt>
<wgt id='130'> +5.1894988e+02 </wgt>
<wgt id='131'> +4.4589534e+02 </wgt>
<wgt id='132'> +5.4569501e+02 </wgt>
<wgt id='133'> +5.5785420e+02 </wgt>
<wgt id='134'> +5.4381683e+02 </wgt>
<wgt id='135'> +4.7465594e+02 </wgt>
<wgt id='136'> +6.0775243e+02 </wgt>
<wgt id='137'> +5.5887326e+02 </wgt>
<wgt id='138'> +5.3347877e+02 </wgt>
<wgt id='139'> +5.2103469e+02 </wgt>
<wgt id='140'> +4.8900241e+02 </wgt>
<wgt id='141'> +6.0873436e+02 </wgt>
<wgt id='142'> +3.0559990e+02 </wgt>
<wgt id='143'> +5.1248947e+02 </wgt>
<wgt id='144'> +4.4559672e+02 </wgt>
<wgt id='145'> +4.5653218e+02 </wgt>
</rwgt>
</event>
<event>
 4      1 +5.0481800e+02 1.77387200e+02 7.54677100e-03 1.17035600e-01
       21 -1    0    0  501  502 +0.0000000000e+00 +0.0000000000e+00 +5.7269027594e+02 5.7269027594e+02 0.0000000000e+00 0.0000e+00 1.0000e+00
       21 -1    0    0  502  503 -0.0000000000e+00 -0.0000000000e+00 -1.1410175978e+02 1.1410175978e+02 0.0000000000e+00 0.0000e+00 1.0000e+00
        6  1    1    2  501    0 -3.8132888193e+01 -9.1153135283e+00 +4.7655373493e+02 5.0849746153e+02 1.7300000000e+02 0.0000e+00 1.0000e+00
       -6  1    1    2    0  503 +3.8132888193e+01 +9.1153135283e+00 -1.7965218767e+01 1.7829457420e+02 1.7300000000e+02 0.0000e+00 1.0000e+00
<mgrwt>
<rscale>  2 0.17738716E+03</rscale>
<asrwt>0</asrwt>
<pdfrwt beam="1">  1       21 0.88106195E-01 0.17738716E+03</pdfrwt>
<pdfrwt beam="2">  1       21 0.17554117E-01 0.17738716E+03</pdfrwt>
<totfact> 0.32722290E+04</totfact>
</mgrwt>
<rwgt>
<wgt id='1'> +6.6020344e+02 </wgt>
<wgt id='2'> +6.2480362e+02 </wgt>
<wgt id='3'> +5.0481800e+02 </wgt>
<wgt id='4'> +6.6020343e+02 </wgt>
<wgt id='5'> +4.4122865e+02 </wgt>
<wgt id='6'> +6.2187554e+02 </wgt>
<wgt id='7'> +5.8657667e+02 </wgt>
<wgt id='8'> +4.6730469e+02 </wgt>
<wgt id='9'> +6.2187554e+02 </wgt>
<wgt id='10'> +4.0824190e+02 </wgt>
<wgt id='11'> +5.7566363e+02 </wgt>
<wgt id='12'> +5.4253586e+02 </wgt>
<wgt id='13'> +4.3255253e+02 </wgt>
<wgt id='14'> +5.7566362e+02 </wgt>
<wgt id='15'> +3.7813077e+02 </wgt>
<wgt id='16'> +5.3593132e+02 </wgt>
<wgt id='17'> +5.1065701e+02 </wgt>
<wgt id='18'> +4.2394967e+02 </wgt>
<wgt id='19'> +5.3593131e+02 </wgt>
<wgt id='20'> +3.7365102e+02 </wgt>
<wgt id='21'> +4.7941382e+02 </wgt>
<wgt id='22'> +3.9244574e+02 </wgt>
<wgt id='23'> +5.0481800e+02 </wgt>
<wgt id='24'> +3.4571645e+02 </wgt>
<wgt id='25'> +4.6730470e+02 </wgt>
<wgt id='26'> +4.4341891e+02 </wgt>
<wgt id='27'> +3.6326063e+02 </wgt>
<wgt id='28'> +4.6730469e+02 </wgt>
<wgt id='29'> +3.2021708e+02 </wgt>
<wgt id='30'> +4.5007885e+02 </wgt>
<wgt id='31'> +4.3051632e+02 </wgt>
<wgt id='32'> +3.6128514e+02 </wgt>
<wgt id='33'> +4.5007885e+02 </wgt>
<wgt id='34'> +3.2048920e+02 </wgt>
<wgt id='35'> +4.2394967e+02 </wgt>
<wgt id='36'> +4.0417632e+02 </wgt>
<wgt id='37'> +3.3443784e+02 </wgt>
<wgt id='38'> +4.2394967e+02 </wgt>
<wgt id='39'> +2.9652907e+02 </wgt>
<wgt id='40'> +3.9244574e+02 </wgt>
<wgt id='41'> +3.7383032e+02 </wgt>
<wgt id='42'> +3.0956662e+02 </wgt>
<wgt id='43'> +3.9244574e+02 </wgt>
<wgt id='44'> +2.7465766e+02 </wgt>
<wgt id='45'> +5.0481800e+02 </wgt>
<wgt id='46'> +5.1330846e+02 </wgt>
<wgt id='47'> +5.2231920e+02 </wgt>
<wgt id='48'> +5.0874211e+02 </wgt>
<wgt id='49'> +4.9887178e+02 </wgt>
<wgt id='50'> +6.0271174e+02 </wgt>
<wgt id='51'> +4.9299368e+02 </wgt>
<wgt id='52'> +5.0373420e+02 </wgt>
<wgt id='53'> +5.0173225e+02 </wgt>
<wgt id='54'> +5.1134520e+02 </wgt>
<wgt id='55'> +4.6772968e+02 </wgt>
<wgt id='56'> +4.6156226e+02 </wgt>
<wgt id='57'> +5.0150879e+02 </wgt>
<wgt id='58'> +4.9769319e+02 </wgt>
<wgt id='59'> +5.1609905e+02 </wgt>
<wgt id='60'> +4.9783188e+02 </wgt>
<wgt id='61'> +4.5412954e+02 </wgt>
<wgt id='62'> +4.9622106e+02 </wgt>
<wgt id='63'> +5.0635860e+02 </wgt>
<wgt id='64'> +4.9549164e+02 </wgt>
<wgt id='65'> +5.7428620e+02 </wgt>
<wgt id='66'> +4.9486502e+02 </wgt>
<wgt id='67'> +5.0830749e+02 </wgt>
<wgt id='68'> +5.5369672e+02 </wgt>
<wgt id='69'> +5.0170240e+02 </wgt>
<wgt id='70'> +4.9725807e+02 </wgt>
<wgt id='71'> +5.1131281e+02 </wgt>
<wgt id='72'> +4.8477703e+02 </wgt>
<wgt id='73'> +4.9111830e+02 </wgt>
<wgt id='74'> +5.3098501e+02 </wgt>
<wgt id='75'> +5.1697557e+02 </wgt>
<wgt id='76'> +4.9516515e+02 </wgt>
<wgt id='77'> +4.9244997e+02 </wgt>
<wgt id='78'> +4.8859109e+02 </wgt>
<wgt id='79'> +4.9438848e+02 </wgt>
<wgt id='80'> +4.9309416e+02 </wgt>
<wgt id='81'> +4.9472624e+02 </wgt>
<wgt id='82'> +5.0369344e+02 </wgt>
<wgt id='83'> +5.1323977e+02 </wgt>
<wgt id='84'> +5.4767921e+02 </wgt>
<wgt id='85'> +5.2009680e+02 </wgt>
<wgt id='86'> +5.0622394e+02 </wgt>
<wgt id='87'> +5.0759552e+02 </wgt>
<wgt id='88'> +5.0956046e+02 </wgt>
<wgt id='89'> +5.1364983e+02 </wgt>
<wgt id='90'> +5.1370822e+02 </wgt>
<wgt id='91'> +5.2344508e+02 </wgt>
<wgt id='92'> +4.5937685e+02 </wgt>
<wgt id='93'> +5.0086015e+02 </wgt>
<wgt id='94'> +4.9362029e+02 </wgt>
<wgt id='95'> +4.9312700e+02 </wgt>
<wgt id='96'> +5.4453761e+02 </wgt>
<wgt id='97'> +5.0290078e+02 </wgt>
<wgt id='98'> +4.8977315e+02 </wgt>
<wgt id='99'> +4.8135855e+02 </wgt>
<wgt id='100'> +4.7796979e+02 </wgt>
<wgt id='101'> +5.5128474e+02 </wgt>
<wgt id='102'> +5.1144605e+02 </wgt>
<wgt id='103'> +5.4664778e+02 </wgt>
<wgt id='104'> +5.0841766e+02 </wgt>
<wgt id='105'> +5.2185980e+02 </wgt>
<wgt id='106'> +4.5945344e+02 </wgt>
<wgt id='107'> +4.8491639e+02 </wgt>
<wgt id='108'> +4.4510996e+02 </wgt>
<wgt id='109'> +4.7353309e+02 </wgt>
<wgt id='110'> +5.0147749e+02 </wgt>
<wgt id='111'> +4.9044426e+02 </wgt>
<wgt id='112'> +4.7793275e+02 </wgt>
<wgt id='113'> +4.6525674e+02 </wgt>
<wgt id='114'> +4.9585263e+02 </wgt>
<wgt id='115'> +4.8545677e+02 </wgt>
<wgt id='116'> +5.1818095e+02 </wgt>
<wgt id='117'> +5.0264620e+02 </wgt>
<wgt id='118'> +5.2720179e+02 </wgt>
<wgt id='119'> +4.8986560e+02 </wgt>
<wgt id='120'> +4.9469633e+02 </wgt>
<wgt id='121'> +4.9317094e+02 </wgt>
<wgt id='122'> +4.9880190e+02 </wgt>
<wgt id='123'> +5.0954401e+02 </wgt>
<wgt id='124'> +5.5469275e+02 </wgt>
<wgt id='125'> +5.5849032e+02 </wgt>
<wgt id='126'> +5.2241690e+02 </wgt>
<wgt id='127'> +5.1921214e+02 </wgt>
<wgt id='128'> +4.6039990e+02 </wgt>
<wgt id='129'> +5.6916592e+02 </wgt>
<wgt id='130'> +5.0288127e+02 </wgt>
<wgt id='131'> +5.3088188e+02 </wgt>
<wgt id='132'> +5.2105204e+02 </wgt>
<wgt id='133'> +5.1436595e+02 </wgt>
<wgt id='134'> +4.8543449e+02 </wgt>
<wgt id='135'> +5.1383319e+02 </wgt>
<wgt id='136'> +5.0975535e+02 </wgt>
<wgt id='137'> +4.8115762e+02 </wgt>
<wgt id='138'> +4.6995213e+02 </wgt>
<wgt id='139'> +5.1915315e+02 </wgt>
<wgt id='140'> +5.2490470e+02 </wgt>
<wgt id='141'> +5.1073880e+02 </wgt>
<wgt id='142'> +4.8333004e+02 </wgt>
<wgt id='143'> +5.1062400e+02 </wgt>
<wgt id='144'> +4.9658298e+02 </wgt>
<wgt id='145'> +5.0277584e+02 </wgt>
</rwgt>
</event>
<event>
 4      1 +5.0481800e+02 1.89111400e+02 7.54677100e-03 1.15926500e-01
       21 -1    0    0  501  502 +0.0000000000e+00 +0.0000000000e+00 +2.2131901784e+03 2.2131901784e+03 0.0000000000e+00 0.0000e+00 -1.0000e+00
       21 -1    0    0  502  503 -0.0000000000e+00 -0.0000000000e+00 -1.6176613301e+01 1.6176613301e+01 0.0000000000e+00 0.0000e+00 -1.0000e+00
        6  1    1    2  501    0 +7.0510628035e+01 -2.9366220973e+01 +1.1352014935e+03 1.1508455824e+03 1.7300000000e+02 0.0000e+00 -1.0000e+00
       -6  1    1    2    0  503 -7.0510628035e+01 +2.9366220973e+01 +1.0618120716e+03 1.0785212093e+03 1.7300000000e+02 0.0000e+00 -1.0000e+00
<mgrwt>
<rscale>  2 0.18911141E+03</rscale>
<asrwt>0</asrwt>
<pdfrwt beam="1">  1       21 0.34049056E+00 0.18911141E+03</pdfrwt>
<pdfrwt beam="2">  1       21 0.24887115E-02 0.18911141E+03</pdfrwt>
<totfact> 0.17192218E+04</totfact>
</mgrwt>
<rwgt>
<wgt id='1'> +7.1438013e+02 </wgt>
<wgt id='2'> +7.9433175e+02 </wgt>
<wgt id='3'> +5.0481801e+02 </wgt>
<wgt id='4'> +7.1438013e+02 </wgt>
<wgt id='5'> +5.0468632e+02 </wgt>
<wgt id='6'> +6.2001855e+02 </wgt>
<wgt id='7'> +6.8965588e+02 </wgt>
<wgt id='8'> +4.3509442e+02 </wgt>
<wgt id='9'> +6.2001856e+02 </wgt>
<wgt id='10'> +4.3498237e+02 </wgt>
<wgt id='11'> +5.3438390e+02 </wgt>
<wgt id='12'> +5.9452590e+02 </wgt>
<wgt id='13'> +3.7833225e+02 </wgt>
<wgt id='14'> +5.3438390e+02 </wgt>
<wgt id='15'> +3.7823742e+02 </wgt>
<wgt id='16'> +5.8164702e+02 </wgt>
<wgt id='17'> +6.4124056e+02 </wgt>
<wgt id='18'> +4.2478404e+02 </wgt>
<wgt id='19'> +5.8164703e+02 </wgt>
<wgt id='20'> +4.2467986e+02 </wgt>
<wgt id='21'> +5.5673882e+02 </wgt>
<wgt id='22'> +3.6611445e+02 </wgt>
<wgt id='23'> +5.0481801e+02 </wgt>
<wgt id='24'> +3.6602587e+02 </wgt>
<wgt id='25'> +4.3509441e+02 </wgt>
<wgt id='26'> +4.7994319e+02 </wgt>
<wgt id='27'> +3.1835137e+02 </wgt>
<wgt id='28'> +4.3509442e+02 </wgt>
<wgt id='29'> +3.1827653e+02 </wgt>
<wgt id='30'> +4.8943257e+02 </wgt>
<wgt id='31'> +5.3565459e+02 </wgt>
<wgt id='32'> +3.6241906e+02 </wgt>
<wgt id='33'> +4.8943257e+02 </wgt>
<wgt id='34'> +3.6233374e+02 </wgt>
<wgt id='35'> +4.2478404e+02 </wgt>
<wgt id='36'> +4.6506681e+02 </wgt>
<wgt id='37'> +3.1236308e+02 </wgt>
<wgt id='38'> +4.2478404e+02 </wgt>
<wgt id='39'> +3.1229059e+02 </wgt>
<wgt id='40'> +3.6611444e+02 </wgt>
<wgt id='41'> +4.0091627e+02 </wgt>
<wgt id='42'> +2.7161238e+02 </wgt>
<wgt id='43'> +3.6611445e+02 </wgt>
<wgt id='44'> +2.7155120e+02 </wgt>
<wgt id='45'> +5.0481800e+02 </wgt>
<wgt id='46'> +5.0924913e+02 </wgt>
<wgt id='47'> +6.1823155e+02 </wgt>
<wgt id='48'> +5.0627619e+02 </wgt>
<wgt id='49'> +4.3531851e+02 </wgt>
<wgt id='50'> +6.1105544e+02 </wgt>
<wgt id='51'> +4.9103301e+02 </wgt>
<wgt id='52'> +3.9462356e+02 </wgt>
<wgt id='53'> +5.7856045e+02 </wgt>
<wgt id='54'> +5.3307377e+02 </wgt>
<wgt id='55'> +6.5300406e+02 </wgt>
<wgt id='56'> +4.9278528e+02 </wgt>
<wgt id='57'> +5.6315807e+02 </wgt>
<wgt id='58'> +4.1101400e+02 </wgt>
<wgt id='59'> +5.5279986e+02 </wgt>
<wgt id='60'> +4.8828456e+02 </wgt>
<wgt id='61'> +3.7428695e+02 </wgt>
<wgt id='62'> +4.2434656e+02 </wgt>
<wgt id='63'> +5.3948445e+02 </wgt>
<wgt id='64'> +5.0947371e+02 </wgt>
<wgt id='65'> +3.5997468e+02 </wgt>
<wgt id='66'> +5.2037951e+02 </wgt>
<wgt id='67'> +4.8202235e+02 </wgt>
<wgt id='68'> +7.9690203e+02 </wgt>
<wgt id='69'> +6.1216055e+02 </wgt>
<wgt id='70'> +7.1492839e+02 </wgt>
<wgt id='71'> +4.1875394e+02 </wgt>
<wgt id='72'> +3.9602025e+02 </wgt>
<wgt id='73'> +4.2322737e+02 </wgt>
<wgt id='74'> +7.0815910e+02 </wgt>
<wgt id='75'> +6.6650019e+02 </wgt>
<wgt id='76'> +5.0450744e+02 </wgt>
<wgt id='77'> +4.2102864e+02 </wgt>
<wgt id='78'> +4.0070770e+02 </wgt>
<wgt id='79'> +5.9405223e+02 </wgt>
<wgt id='80'> +3.5636461e+02 </wgt>
<wgt id='81'> +5.6833589e+02 </wgt>
<wgt id='82'> +4.8719326e+02 </wgt>
<wgt id='83'> +5.0229288e+02 </wgt>
<wgt id='84'> +4.0887727e+02 </wgt>
<wgt id='85'> +4.0880572e+02 </wgt>
<wgt id='86'> +5.6398494e+02 </wgt>
<wgt id='87'> +4.6215765e+02 </wgt>
<wgt id='88'> +5.5520031e+02 </wgt>
<wgt id='89'> +2.8548045e+02 </wgt>
<wgt id='90'> +3.9065785e+02 </wgt>
<wgt id='91'> +3.5373213e+02 </wgt>
<wgt id='92'> +4.7120851e+02 </wgt>
<wgt id='93'> +5.4893929e+02 </wgt>
<wgt id='94'> +4.1669272e+02 </wgt>
<wgt id='95'> +5.2207411e+02 </wgt>
<wgt id='96'> +4.8150789e+02 </wgt>
<wgt id='97'> +4.0957635e+02 </wgt>
<wgt id='98'> +6.5336686e+02 </wgt>
<wgt id='99'> +3.6613247e+02 </wgt>
<wgt id='100'> +3.0239044e+02 </wgt>
<wgt id='101'> +6.3162802e+02 </wgt>
<wgt id='102'> +6.2020341e+02 </wgt>
<wgt id='103'> +4.0882543e+02 </wgt>
<wgt id='104'> +5.7516560e+02 </wgt>
<wgt id='105'> +5.1873697e+02 </wgt>
<wgt id='106'> +5.2775082e+02 </wgt>
<wgt id='107'> +5.3914045e+02 </wgt>
<wgt id='108'> +4.5971048e+02 </wgt>
<wgt id='109'> +5.1779952e+02 </wgt>
<wgt id='110'> +3.7254574e+02 </wgt>
<wgt id='111'> +4.6639810e+02 </wgt>
<wgt id='112'> +5.2048808e+02 </wgt>
<wgt id='113'> +6.5703615e+02 </wgt>
<wgt id='114'> +4.3252707e+02 </wgt>
<wgt id='115'> +4.8905682e+02 </wgt>
<wgt id='116'> +5.9820037e+02 </wgt>
<wgt id='117'> +5.3112184e+02 </wgt>
<wgt id='118'> +4.9752294e+02 </wgt>
<wgt id='119'> +5.4031995e+02 </wgt>
<wgt id='120'> +4.8198804e+02 </wgt>
<wgt id='121'> +4.4912310e+02 </wgt>
<wgt id='122'> +4.6325804e+02 </wgt>
<wgt id='123'> +4.3192701e+02 </wgt>
<wgt id='124'> +5.6564916e+02 </wgt>
<wgt id='125'> +7.8180972e+02 </wgt>
<wgt id='126'> +4.6971712e+02 </wgt>
<wgt id='127'> +4.4621108e+02 </wgt>
<wgt id='128'> +5.0673667e+02 </wgt>
<wgt id='129'> +4.5861871e+02 </wgt>
<wgt id='130'> +4.6242613e+02 </wgt>
<wgt id='131'> +4.1497859e+02 </wgt>
<wgt id='132'> +5.3264239e+02 </wgt>
<wgt id='133'> +5.6650806e+02 </wgt>
<wgt id='134'> +5.9475509e+02 </wgt>
<wgt id='135'> +4.6918157e+02 </wgt>
<wgt id='136'> +6.4428520e+02 </wgt>
<wgt id='137'> +6.2322480e+02 </wgt>
<wgt id='138'> +5.9411669e+02 </wgt>
<wgt id='139'> +5.3786936e+02 </wgt>
<wgt id='140'> +4.7356227e+02 </wgt>
<wgt id='141'> +7.1283472e+02 </wgt>
<wgt id='142'> +2.0236762e+02 </wgt>
<wgt id='143'> +5.1617318e+02 </wgt>
<wgt id='144'> +4.2074170e+02 </wgt>
<wgt id='145'> +4.4459269e+02 </wgt>
</rwgt>
</event>
<event>
 4      1 +5.0481800e+02 2.00121000e+02 7.54677100e-03 1.14963700e-01
       21 -1    0    0  503  502 +0.0000000000e+00 +0.0000000000e+00 +3.0487302624e+02 3.0487302624e+02 0.0000000000e+00 0.0000e+00 1.0000e+00
       21 -1    0    0  501  503 -0.0000000000e+00 -0.0000000000e+00 -2.2121466869e+02 2.2121466869e+02 0.0000000000e+00 0.0000e+00 -1.0000e+00
        6  1    1    2  501    0 +6.7169290296e+01 -7.4884505300e+01 -1.2581530814e+02 2.3638505548e+02 1.7300000000e+02 0.0000e+00 -1.0000e+00
       -6  1    1    2    0  502 -6.7169290296e+01 +7.4884505300e+01 +2.0947366569e+02 2.8970263946e+02 1.7300000000e+02 0.0000e+00 1.0000e+00
<mgrwt>
<rscale>  2 0.20012097E+03</rscale>
<asrwt>0</asrwt>
<pdfrwt beam="1">  1       21 0.46903543E-01 0.20012097E+03</pdfrwt>
<pdfrwt beam="2">  1       21 0.34033026E-01 0.20012097E+03</pdfrwt>
<totfact> 0.36052095E+04</totfact>
</mgrwt>
<rwgt>
<wgt id='1'> +6.5549171e+02 </wgt>
<wgt id='2'> +5.8180033e+02 </wgt>
<wgt id='3'> +5.0481800e+02 </wgt>
<wgt id='4'> +6.5549171e+02 </wgt>
<wgt id='5'> +4.5957118e+02 </wgt>
<wgt id='6'> +6.1826961e+02 </wgt>
<wgt id='7'> +5.4384793e+02 </wgt>
<wgt id='8'> +4.6881021e+02 </wgt>
<wgt id='9'> +6.1826961e+02 </wgt>
<wgt id='10'> +4.2691580e+02 </wgt>
<wgt id='11'> +5.7416951e+02 </wgt>
<wgt id='12'> +5.0522619e+02 </wgt>
<wgt id='13'> +4.3571959e+02 </wgt>
<wgt id='14'> +5.7416951e+02 </wgt>
<wgt id='15'> +3.9695215e+02 </wgt>
<wgt id='16'> +5.3520990e+02 </wgt>
<wgt id='17'> +4.8297121e+02 </wgt>
<wgt id='18'> +4.2542061e+02 </wgt>
<wgt id='19'> +5.3520990e+02 </wgt>
<wgt id='20'> +3.8930623e+02 </wgt>
<wgt id='21'> +4.5146570e+02 </wgt>
<wgt id='22'> +3.9507610e+02 </wgt>
<wgt id='23'> +5.0481800e+02 </wgt>
<wgt id='24'> +3.6164361e+02 </wgt>
<wgt id='25'> +4.6881021e+02 </wgt>
<wgt id='26'> +4.1940455e+02 </wgt>
<wgt id='27'> +3.6718995e+02 </wgt>
<wgt id='28'> +4.6881021e+02 </wgt>
<wgt id='29'> +3.3626118e+02 </wgt>
<wgt id='30'> +4.5103250e+02 </wgt>
<wgt id='31'> +4.0953351e+02 </wgt>
<wgt id='32'> +3.6333404e+02 </wgt>
<wgt id='33'> +4.5103250e+02 </wgt>
<wgt id='34'> +3.3400635e+02 </wgt>
<wgt id='35'> +4.2542061e+02 </wgt>
<wgt id='36'> +3.8281855e+02 </wgt>
<wgt id='37'> +3.3741806e+02 </wgt>
<wgt id='38'> +4.2542061e+02 </wgt>
<wgt id='39'> +3.1027313e+02 </wgt>
<wgt id='40'> +3.9507610e+02 </wgt>
<wgt id='41'> +3.5563242e+02 </wgt>
<wgt id='42'> +3.1360166e+02 </wgt>
<wgt id='43'> +3.9507610e+02 </wgt>
<wgt id='44'> +2.8849620e+02 </wgt>
<wgt id='45'> +5.0481800e+02 </wgt>
<wgt id='46'> +5.0781836e+02 </wgt>
<wgt id='47'> +5.2531741e+02 </wgt>
<wgt id='48'> +5.0848170e+02 </wgt>
<wgt id='49'> +5.0393024e+02 </wgt>
<wgt id='50'> +6.0003143e+02 </wgt>
<wgt id='51'> +4.9513125e+02 </wgt>
<wgt id='52'> +5.0265570e+02 </wgt>
<wgt id='53'> +5.0888417e+02 </wgt>
<wgt id='54'> +5.0760441e+02 </wgt>
<wgt id='55'> +4.4806599e+02 </wgt>
<wgt id='56'> +4.6575845e+02 </wgt>
<wgt id='57'> +4.9008876e+02 </wgt>
<wgt id='58'> +5.0558355e+02 </wgt>
<wgt id='59'> +4.9947543e+02 </wgt>
<wgt id='60'> +4.8608249e+02 </wgt>
<wgt id='61'> +4.8707926e+02 </wgt>
<wgt id='62'> +4.9901721e+02 </wgt>
<wgt id='63'> +5.0519695e+02 </wgt>
<wgt id='64'> +4.9722992e+02 </wgt>
<wgt id='65'> +5.9862805e+02 </wgt>
<wgt id='66'> +4.9315947e+02 </wgt>
<wgt id='67'> +5.0942826e+02 </wgt>
<wgt id='68'> +5.4460828e+02 </wgt>
<wgt id='69'> +4.9612189e+02 </wgt>
<wgt id='70'> +4.9540245e+02 </wgt>
<wgt id='71'> +5.1446067e+02 </wgt>
<wgt id='72'> +4.8409373e+02 </wgt>
<wgt id='73'> +4.9680978e+02 </wgt>
<wgt id='74'> +5.2323599e+02 </wgt>
<wgt id='75'> +5.1721030e+02 </wgt>
<wgt id='76'> +4.8830077e+02 </wgt>
<wgt id='77'> +4.8767989e+02 </wgt>
<wgt id='78'> +5.0243362e+02 </wgt>
<wgt id='79'> +4.8517736e+02 </wgt>
<wgt id='80'> +4.9948790e+02 </wgt>
<wgt id='81'> +4.9385959e+02 </wgt>
<wgt id='82'> +5.1772671e+02 </wgt>
<wgt id='83'> +5.1770631e+02 </wgt>
<wgt id='84'> +5.5809260e+02 </wgt>
<wgt id='85'> +5.3288979e+02 </wgt>
<wgt id='86'> +5.0347020e+02 </wgt>
<wgt id='87'> +5.0595258e+02 </wgt>
<wgt id='88'> +5.1522022e+02 </wgt>
<wgt id='89'> +5.1902671e+02 </wgt>
<wgt id='90'> +5.1152715e+02 </wgt>
<wgt id='91'> +5.3772221e+02 </wgt>
<wgt id='92'> +4.5715695e+02 </wgt>
<wgt id='93'> +4.9770325e+02 </wgt>
<wgt id='94'> +5.0001299e+02 </wgt>
<wgt id='95'> +4.8139332e+02 </wgt>
<wgt id='96'> +5.5142509e+02 </wgt>
<wgt id='97'> +5.1134301e+02 </wgt>
<wgt id='98'> +4.8119297e+02 </wgt>
<wgt id='99'> +4.8905986e+02 </wgt>
<wgt id='100'> +4.9631143e+02 </wgt>
<wgt id='101'> +5.3641868e+02 </wgt>
<wgt id='102'> +4.9453729e+02 </wgt>
<wgt id='103'> +5.5233399e+02 </wgt>
<wgt id='104'> +5.0567288e+02 </wgt>
<wgt id='105'> +5.2263968e+02 </wgt>
<wgt id='106'> +4.5795012e+02 </wgt>
<wgt id='107'> +4.9342306e+02 </wgt>
<wgt id='108'> +4.4617297e+02 </wgt>
<wgt id='109'> +4.7013078e+02 </wgt>
<wgt id='110'> +5.0481209e+02 </wgt>
<wgt id='111'> +4.8927856e+02 </wgt>
<wgt id='112'> +4.7833906e+02 </wgt>
<wgt id='113'> +4.5966681e+02 </wgt>
<wgt id='114'> +4.9823178e+02 </wgt>
<wgt id='115'> +5.0127840e+02 </wgt>
<wgt id='116'> +5.0879086e+02 </wgt>
<wgt id='117'> +5.1028144e+02 </wgt>
<wgt id='118'> +5.2188152e+02 </wgt>
<wgt id='119'> +4.8263992e+02 </wgt>
<wgt id='120'> +4.9998078e+02 </wgt>
<wgt id='121'> +4.8823882e+02 </wgt>
<wgt id='122'> +4.9733803e+02 </wgt>
<wgt id='123'> +5.1306227e+02 </wgt>
<wgt id='124'> +5.4460005e+02 </wgt>
<wgt id='125'> +5.4505238e+02 </wgt>
<wgt id='126'> +5.2707613e+02 </wgt>
<wgt id='127'> +5.2200809e+02 </wgt>
<wgt id='128'> +4.6561166e+02 </wgt>
<wgt id='129'> +5.7492780e+02 </wgt>
<wgt id='130'> +5.1058394e+02 </wgt>
<wgt id='131'> +5.4188295e+02 </wgt>
<wgt id='132'> +5.0113172e+02 </wgt>
<wgt id='133'> +5.0421415e+02 </wgt>
<wgt id='134'> +4.7408688e+02 </wgt>
<wgt id='135'> +5.1835573e+02 </wgt>
<wgt id='136'> +4.8441230e+02 </wgt>
<wgt id='137'> +4.7602592e+02 </wgt>
<wgt id='138'> +4.6208971e+02 </wgt>
<wgt id='139'> +5.1640284e+02 </wgt>
<wgt id='140'> +5.3595392e+02 </wgt>
<wgt id='141'> +5.0483728e+02 </wgt>
<wgt id='142'> +5.0530833e+02 </wgt>
<wgt id='143'> +5.0134314e+02 </wgt>
<wgt id='144'> +5.0208605e+02 </wgt>
<wgt id='145'> +5.0625392e+02 </wgt>
</rwgt>
</event>
<event>
 4      1 +5.0481800e+02 2.06927800e+02 7.54677100e-03 1.14402200e-01
        1 -1    0    0  502    0 +0.0000000000e+00 +0.0000000000e+00 +9.6744336821e+01 9.6744336821e+01 0.0000000000e+00 0.0000e+00 -1.0000e+00
       -1 -1    0    0    0  501 -0.0000000000e+00 -0.0000000000e+00 -5.0745848481e+02 5.0745848481e+02 0.0000000000e+00 0.0000e+00 1.0000e+00
        6  1    1    2  502    0 -1.6159295750e+01 -1.1237884698e+02 -3.1335936436e+02 3.7551726900e+02 1.7300000000e+02 0.0000e+00 1.0000e+00
       -6  1    1    2    0  501 +1.6159295750e+01 +1.1237884698e+02 -9.7354783633e+01 2.2868555263e+02 1.7300000000e+02 0.0000e+00 -1.0000e+00
<mgrwt>
<rscale>  2 0.20692783E+03</rscale>
<asrwt>0</asrwt>
<pdfrwt beam="1">  1        1 0.14883744E-01 0.20692783E+03</pdfrwt>
<pdfrwt beam="2">  1       -1 0.78070538E-01 0.20692783E+03</pdfrwt>
<totfact> 0.64590765E+02</totfact>
</mgrwt>
<rwgt>
<wgt id='1'> +6.1218886e+02 </wgt>
<wgt id='2'> +5.4905951e+02 </wgt>
<wgt id='3'> +5.0481800e+02 </wgt>
<wgt id='4'> +6.1218886e+02 </wgt>
<wgt id='5'> +4.9634398e+02 </wgt>
<wgt id='6'> +6.1713252e+02 </wgt>
<wgt id='7'> +5.5157731e+02 </wgt>
<wgt id='8'> +5.0579932e+02 </wgt>
<wgt id='9'> +6.1713252e+02 </wgt>
<wgt id='10'> +4.9704557e+02 </wgt>
<wgt id='11'> +6.1833217e+02 </wgt>
<wgt id='12'> +5.5114020e+02 </wgt>
<wgt id='13'> +5.0439471e+02 </wgt>
<wgt id='14'> +6.1833217e+02 </wgt>
<wgt id='15'> +4.9546922e+02 </wgt>
<wgt id='16'> +5.0077406e+02 </wgt>
<wgt id='17'> +4.5809870e+02 </wgt>
<wgt id='18'> +4.2573049e+02 </wgt>
<wgt id='19'> +5.0077406e+02 </wgt>
<wgt id='20'> +4.1913236e+02 </wgt>
<wgt id='21'> +4.6019938e+02 </wgt>
<wgt id='22'> +4.2655808e+02 </wgt>
<wgt id='23'> +5.0481800e+02 </wgt>
<wgt id='24'> +4.1972481e+02 </wgt>
<wgt id='25'> +5.0579932e+02 </wgt>
<wgt id='26'> +4.5983469e+02 </wgt>
<wgt id='27'> +4.2537352e+02 </wgt>
<wgt id='28'> +5.0579932e+02 </wgt>
<wgt id='29'> +4.1839368e+02 </wgt>
<wgt id='30'> +4.2232010e+02 </wgt>
<wgt id='31'> +3.8919276e+02 </wgt>
<wgt id='32'> +3.6381780e+02 </wgt>
<wgt id='33'> +4.2232010e+02 </wgt>
<wgt id='34'> +3.5861164e+02 </wgt>
<wgt id='35'> +4.2573050e+02 </wgt>
<wgt id='36'> +3.9097747e+02 </wgt>
<wgt id='37'> +3.6452503e+02 </wgt>
<wgt id='38'> +4.2573049e+02 </wgt>
<wgt id='39'> +3.5911854e+02 </wgt>
<wgt id='40'> +4.2655808e+02 </wgt>
<wgt id='41'> +3.9066763e+02 </wgt>
<wgt id='42'> +3.6351274e+02 </wgt>
<wgt id='43'> +4.2655808e+02 </wgt>
<wgt id='44'> +3.5797962e+02 </wgt>
<wgt id='45'> +5.0481800e+02 </wgt>
<wgt id='46'> +5.1973210e+02 </wgt>
<wgt id='47'> +5.0902088e+02 </wgt>
<wgt id='48'> +4.6671751e+02 </wgt>
<wgt id='49'> +4.9697407e+02 </wgt>
<wgt id='50'> +4.4989792e+02 </wgt>
<wgt id='51'> +4.4741861e+02 </wgt>
<wgt id='52'> +5.6225262e+02 </wgt>
<wgt id='53'> +5.5870213e+02 </wgt>
<wgt id='54'> +5.0144047e+02 </wgt>
<wgt id='55'> +4.7920061e+02 </wgt>
<wgt id='56'> +4.8341727e+02 </wgt>
<wgt id='57'> +4.3620231e+02 </wgt>
<wgt id='58'> +6.1357872e+02 </wgt>
<wgt id='59'> +4.6421917e+02 </wgt>
<wgt id='60'> +4.9596008e+02 </wgt>
<wgt id='61'> +4.8031026e+02 </wgt>
<wgt id='62'> +5.2777447e+02 </wgt>
<wgt id='63'> +5.4095419e+02 </wgt>
<wgt id='64'> +4.8884158e+02 </wgt>
<wgt id='65'> +4.6619841e+02 </wgt>
<wgt id='66'> +4.5401176e+02 </wgt>
<wgt id='67'> +5.2646132e+02 </wgt>
<wgt id='68'> +4.6335605e+02 </wgt>
<wgt id='69'> +4.7331195e+02 </wgt>
<wgt id='70'> +5.9504845e+02 </wgt>
<wgt id='71'> +4.6683649e+02 </wgt>
<wgt id='72'> +4.5894910e+02 </wgt>
<wgt id='73'> +5.3774493e+02 </wgt>
<wgt id='74'> +5.0164917e+02 </wgt>
<wgt id='75'> +4.8375296e+02 </wgt>
<wgt id='76'> +5.1147787e+02 </wgt>
<wgt id='77'> +5.0251822e+02 </wgt>
<wgt id='78'> +4.8167852e+02 </wgt>
<wgt id='79'> +5.3380885e+02 </wgt>
<wgt id='80'> +4.9564740e+02 </wgt>
<wgt id='81'> +5.7432855e+02 </wgt>
<wgt id='82'> +4.9037137e+02 </wgt>
<wgt id='83'> +4.6786111e+02 </wgt>
<wgt id='84'> +5.1503662e+02 </wgt>
<wgt id='85'> +4.9147149e+02 </wgt>
<wgt id='86'> +5.7887077e+02 </wgt>
<wgt id='87'> +5.3424001e+02 </wgt>
<wgt id='88'> +4.7398005e+02 </wgt>
<wgt id='89'> +6.2594956e+02 </wgt>
<wgt id='90'> +5.7669203e+02 </wgt>
<wgt id='91'> +4.4370656e+02 </wgt>
<wgt id='92'> +4.7747529e+02 </wgt>
<wgt id='93'> +5.2393178e+02 </wgt>
<wgt id='94'> +5.3012621e+02 </wgt>
<wgt id='95'> +4.7132220e+02 </wgt>
<wgt id='96'> +5.1028043e+02 </wgt>
<wgt id='97'> +4.7920711e+02 </wgt>
<wgt id='98'> +4.9794433e+02 </wgt>
<wgt id='99'> +5.8001437e+02 </wgt>
<wgt id='100'> +4.3453861e+02 </wgt>
<wgt id='101'> +4.9482376e+02 </wgt>
<wgt id='102'> +5.2451293e+02 </wgt>
<wgt id='103'> +5.4739349e+02 </wgt>
<wgt id='104'> +4.4136023e+02 </wgt>
<wgt id='105'> +5.2875520e+02 </wgt>
<wgt id='106'> +5.1918638e+02 </wgt>
<wgt id='107'> +5.0343520e+02 </wgt>
<wgt id='108'> +4.7706247e+02 </wgt>
<wgt id='109'> +4.4886036e+02 </wgt>
<wgt id='110'> +5.5297633e+02 </wgt>
<wgt id='111'> +4.9574259e+02 </wgt>
<wgt id='112'> +4.6970144e+02 </wgt>
<wgt id='113'> +5.3215837e+02 </wgt>
<wgt id='114'> +4.6936424e+02 </wgt>
<wgt id='115'> +4.4294448e+02 </wgt>
<wgt id='116'> +4.7597422e+02 </wgt>
<wgt id='117'> +4.5951530e+02 </wgt>
<wgt id='118'> +5.1766612e+02 </wgt>
<wgt id='119'> +5.5408701e+02 </wgt>
<wgt id='120'> +5.1030421e+02 </wgt>
<wgt id='121'> +4.7765011e+02 </wgt>
<wgt id='122'> +4.9971612e+02 </wgt>
<wgt id='123'> +4.9850292e+02 </wgt>
<wgt id='124'> +4.8311083e+02 </wgt>
<wgt id='125'> +4.6095868e+02 </wgt>
<wgt id='126'> +5.3827757e+02 </wgt>
<wgt id='127'> +5.2911383e+02 </wgt>
<wgt id='128'> +4.7745022e+02 </wgt>
<wgt id='129'> +5.1556379e+02 </wgt>
<wgt id='130'> +4.5114020e+02 </wgt>
<wgt id='131'> +5.4967235e+02 </wgt>
<wgt id='132'> +4.8719456e+02 </wgt>
<wgt id='133'> +6.5027218e+02 </wgt>
<wgt id='134'> +4.5321963e+02 </wgt>
<wgt id='135'> +4.3817485e+02 </wgt>
<wgt id='136'> +5.7374835e+02 </wgt>
<wgt id='137'> +5.1202603e+02 </wgt>
<wgt id='138'> +4.8550626e+02 </wgt>
<wgt id='139'> +6.2949004e+02 </wgt>
<wgt id='140'> +4.8412505e+02 </wgt>
<wgt id='141'> +5.4242054e+02 </wgt>
<wgt id='142'> +4.6413636e+02 </wgt>
<wgt id='143'> +5.2061992e+02 </wgt>
<wgt id='144'> +4.9909238e+02 </wgt>
<wgt id='145'> +5.4861264e+02 </wgt>
</rwgt>
</event>
<event>
 4      1 +5.0481800e+02 1.77825000e+02 7.54677100e-03 1.16992500e-01
       21 -1    0    0  503  502 +0.0000000000e+00 +0.0000000000e+00 +1.4850100621e+02 1.4850100621e+02 0.0000000000e+00 0.0000e+00 -1.0000e+00
       21 -1    0    0  501  503 -0.0000000000e+00 -0.0000000000e+00 -2.3338601819e+02 2.3338601819e+02 0.0000000000e+00 0.0000e+00 -1.0000e+00
        6  1    1    2  501    0 +3.8835348102e+01 +1.3584202388e+01 +1.4074384278e+01 1.7838106152e+02 1.7300000000e+02 0.0000e+00 1.0000e+00
       -6  1    1    2    0  502 -3.8835348102e+01 -1.3584202388e+01 -9.8959396263e+01 2.0350596287e+02 1.7300000000e+02 0.0000e+00 1.0000e+00
<mgrwt>
<rscale>  2 0.17782496E+03</rscale>
<asrwt>0</asrwt>
<pdfrwt beam="1">  1       21 0.22846309E-01 0.17782496E+03</pdfrwt>
<pdfrwt beam="2">  1       21 0.35905541E-01 0.17782496E+03</pdfrwt>
<totfact> 0.13512179E+05</totfact>
</mgrwt>
<rwgt>
<wgt id='1'> +6.4147451e+02 </wgt>
<wgt id='2'> +5.7165354e+02 </wgt>
<wgt id='3'> +5.0481800e+02 </wgt>
<wgt id='4'> +6.4147451e+02 </wgt>
<wgt id='5'> +4.9713153e+02 </wgt>
<wgt id='6'> +6.2180187e+02 </wgt>
<wgt id='7'> +5.4833580e+02 </wgt>
<wgt id='8'> +4.7943735e+02 </wgt>
<wgt id='9'> +6.2180188e+02 </wgt>
<wgt id='10'> +4.7185632e+02 </wgt>
<wgt id='11'> +5.9053964e+02 </wgt>
<wgt id='12'> +5.1988764e+02 </wgt>
<wgt id='13'> +4.5422205e+02 </wgt>
<wgt id='14'> +5.9053964e+02 </wgt>
<wgt id='15'> +4.4700796e+02 </wgt>
<wgt id='16'> +5.2078949e+02 </wgt>
<wgt id='17'> +4.7211144e+02 </wgt>
<wgt id='18'> +4.2398388e+02 </wgt>
<wgt id='19'> +5.2078949e+02 </wgt>
<wgt id='20'> +4.1812427e+02 </wgt>
<wgt id='21'> +4.5285402e+02 </wgt>
<wgt id='22'> +4.0266731e+02 </wgt>
<wgt id='23'> +5.0481800e+02 </wgt>
<wgt id='24'> +3.9686596e+02 </wgt>
<wgt id='25'> +4.7943734e+02 </wgt>
<wgt id='26'> +4.2935955e+02 </wgt>
<wgt id='27'> +3.8148962e+02 </wgt>
<wgt id='28'> +4.7943735e+02 </wgt>
<wgt id='29'> +3.7596665e+02 </wgt>
<wgt id='30'> +4.3739793e+02 </wgt>
<wgt id='31'> +3.9952755e+02 </wgt>
<wgt id='32'> +3.6133068e+02 </wgt>
<wgt id='33'> +4.3739793e+02 </wgt>
<wgt id='34'> +3.5663533e+02 </wgt>
<wgt id='35'> +4.2398388e+02 </wgt>
<wgt id='36'> +3.8323083e+02 </wgt>
<wgt id='37'> +3.4316411e+02 </wgt>
<wgt id='38'> +4.2398388e+02 </wgt>
<wgt id='39'> +3.3850324e+02 </wgt>
<wgt id='40'> +4.0266731e+02 </wgt>
<wgt id='41'> +3.6334847e+02 </wgt>
<wgt id='42'> +3.2511590e+02 </wgt>
<wgt id='43'> +4.0266731e+02 </wgt>
<wgt id='44'> +3.2067737e+02 </wgt>
<wgt id='45'> +5.0481800e+02 </wgt>
<wgt id='46'> +5.0005074e+02 </wgt>
<wgt id='47'> +5.1995399e+02 </wgt>
<wgt id='48'> +5.0327074e+02 </wgt>
<wgt id='49'> +5.0429096e+02 </wgt>
<wgt id='50'> +5.7536303e+02 </wgt>
<wgt id='51'> +4.9515565e+02 </wgt>
<wgt id='52'> +5.0073700e+02 </wgt>
<wgt id='53'> +5.1477588e+02 </wgt>
<wgt id='54'> +5.0761314e+02 </wgt>
<wgt id='55'> +4.5205486e+02 </wgt>
<wgt id='56'> +4.7536723e+02 </wgt>
<wgt id='57'> +4.9123949e+02 </wgt>
<wgt id='58'> +5.1285272e+02 </wgt>
<wgt id='59'> +4.9193548e+02 </wgt>
<wgt id='60'> +4.7935978e+02 </wgt>
<wgt id='61'> +5.0234372e+02 </wgt>
<wgt id='62'> +4.9738701e+02 </wgt>
<wgt id='63'> +5.0524391e+02 </wgt>
<wgt id='64'> +5.0474134e+02 </wgt>
<wgt id='65'> +5.9602251e+02 </wgt>
<wgt id='66'> +4.9188952e+02 </wgt>
<wgt id='67'> +5.0941143e+02 </wgt>
<wgt id='68'> +5.3450083e+02 </wgt>
<wgt id='69'> +4.8652195e+02 </wgt>
<wgt id='70'> +4.9745213e+02 </wgt>
<wgt id='71'> +5.1466019e+02 </wgt>
<wgt id='72'> +4.9957328e+02 </wgt>
<wgt id='73'> +5.0070953e+02 </wgt>
<wgt id='74'> +5.1429017e+02 </wgt>
<wgt id='75'> +5.1457187e+02 </wgt>
<wgt id='76'> +4.9127172e+02 </wgt>
<wgt id='77'> +4.8331326e+02 </wgt>
<wgt id='78'> +5.1102538e+02 </wgt>
<wgt id='79'> +4.8110579e+02 </wgt>
<wgt id='80'> +5.0262514e+02 </wgt>
<wgt id='81'> +4.9753347e+02 </wgt>
<wgt id='82'> +5.2166887e+02 </wgt>
<wgt id='83'> +5.1279609e+02 </wgt>
<wgt id='84'> +5.5169623e+02 </wgt>
<wgt id='85'> +5.3139386e+02 </wgt>
<wgt id='86'> +4.9847467e+02 </wgt>
<wgt id='87'> +5.0299478e+02 </wgt>
<wgt id='88'> +5.1216321e+02 </wgt>
<wgt id='89'> +5.1445980e+02 </wgt>
<wgt id='90'> +5.0852952e+02 </wgt>
<wgt id='91'> +5.3876587e+02 </wgt>
<wgt id='92'> +4.7358448e+02 </wgt>
<wgt id='93'> +4.9338787e+02 </wgt>
<wgt id='94'> +5.0588061e+02 </wgt>
<wgt id='95'> +4.8621322e+02 </wgt>
<wgt id='96'> +5.3895221e+02 </wgt>
<wgt id='97'> +5.1576571e+02 </wgt>
<wgt id='98'> +4.8040791e+02 </wgt>
<wgt id='99'> +4.9249925e+02 </wgt>
<wgt id='100'> +5.0984224e+02 </wgt>
<wgt id='101'> +5.1975298e+02 </wgt>
<wgt id='102'> +4.8155742e+02 </wgt>
<wgt id='103'> +5.4388430e+02 </wgt>
<wgt id='104'> +5.0135429e+02 </wgt>
<wgt id='105'> +5.2810157e+02 </wgt>
<wgt id='106'> +4.7273870e+02 </wgt>
<wgt id='107'> +5.0723572e+02 </wgt>
<wgt id='108'> +4.6075747e+02 </wgt>
<wgt id='109'> +4.7935492e+02 </wgt>
<wgt id='110'> +5.0749264e+02 </wgt>
<wgt id='111'> +4.9463785e+02 </wgt>
<wgt id='112'> +4.8661583e+02 </wgt>
<wgt id='113'> +4.6754806e+02 </wgt>
<wgt id='114'> +5.1203876e+02 </wgt>
<wgt id='115'> +5.1508904e+02 </wgt>
<wgt id='116'> +4.9687211e+02 </wgt>
<wgt id='117'> +5.1482815e+02 </wgt>
<wgt id='118'> +5.1070406e+02 </wgt>
<wgt id='119'> +4.8767214e+02 </wgt>
<wgt id='120'> +5.0860216e+02 </wgt>
<wgt id='121'> +4.9315866e+02 </wgt>
<wgt id='122'> +4.9926944e+02 </wgt>
<wgt id='123'> +5.0955345e+02 </wgt>
<wgt id='124'> +5.2997984e+02 </wgt>
<wgt id='125'> +5.3195930e+02 </wgt>
<wgt id='126'> +5.2119176e+02 </wgt>
<wgt id='127'> +5.1714664e+02 </wgt>
<wgt id='128'> +4.7377442e+02 </wgt>
<wgt id='129'> +5.6861076e+02 </wgt>
<wgt id='130'> +5.0751322e+02 </wgt>
<wgt id='131'> +5.4115686e+02 </wgt>
<wgt id='132'> +4.9352479e+02 </wgt>
<wgt id='133'> +4.9574809e+02 </wgt>
<wgt id='134'> +4.7358079e+02 </wgt>
<wgt id='135'> +5.1788589e+02 </wgt>
<wgt id='136'> +4.7929848e+02 </wgt>
<wgt id='137'> +4.7339180e+02 </wgt>
<wgt id='138'> +4.5313874e+02 </wgt>
<wgt id='139'> +5.1155189e+02 </wgt>
<wgt id='140'> +5.3991136e+02 </wgt>
<wgt id='141'> +5.0220107e+02 </wgt>
<wgt id='142'> +5.1558733e+02 </wgt>
<wgt id='143'> +4.9724943e+02 </wgt>
<wgt id='144'> +5.0835436e+02 </wgt>
<wgt id='145'> +5.0586040e+02 </wgt>
</rwgt>
</event>
<event>
 4      1 +5.0481800e+02 1.94674200e+02 7.54677100e-03 1.15431200e-01
       21 -1    0    0  503  502 +0.0000000000e+00 +0.0000000000e+00 +1.1068068156e+03 1.1068068156e+03 0.0000000000e+00 0.0000e+00 1.0000e+00
       21 -1    0    0  501  503 -0.0000000000e+00 -0.0000000000e+00 -3.9486216087e+01 3.9486216087e+01 0.0000000000e+00 0.0000e+00 1.0000e+00
        6  1    1    2  501    0 +3.3743898379e+01 -8.2646286665e+01 +3.2476493232e+02 3.7864273484e+02 1.7300000000e+02 0.0000e+00 1.0000e+00
       -6  1    1    2    0  502 -3.3743898379e+01 +8.2646286665e+01 +7.4255566717e+02 7.6765029683e+02 1.7300000000e+02 0.0000e+00 1.0000e+00
<mgrwt>
<rscale>  2 0.19467424E+03</rscale>
<asrwt>0</asrwt>
<pdfrwt beam="1">  1       21 0.17027795E+00 0.19467424E+03</pdfrwt>
<pdfrwt beam="2">  1       21 0.60748033E-02 0.19467424E+03</pdfrwt>
<totfact> 0.40955381E+04</totfact>
</mgrwt>
<rwgt>
<wgt id='1'> +6.6481568e+02 </wgt>
<wgt id='2'> +6.6861588e+02 </wgt>
<wgt id='3'> +5.0481800e+02 </wgt>
<wgt id='4'> +6.6481568e+02 </wgt>
<wgt id='5'> +4.9120207e+02 </wgt>
<wgt id='6'> +6.1915481e+02 </wgt>
<wgt id='7'> +6.2290719e+02 </wgt>
<wgt id='8'> +4.6267608e+02 </wgt>
<wgt id='9'> +6.1915481e+02 </wgt>
<wgt id='10'> +4.5017051e+02 </wgt>
<wgt id='11'> +5.6746812e+02 </wgt>
<wgt id='12'> +5.7094764e+02 </wgt>
<wgt id='13'> +4.2452555e+02 </wgt>
<wgt id='14'> +5.6746812e+02 </wgt>
<wgt id='15'> +4.1311939e+02 </wgt>
<wgt id='16'> +5.4204686e+02 </wgt>
<wgt id='17'> +5.4477480e+02 </wgt>
<wgt id='18'> +4.2512841e+02 </wgt>
<wgt id='19'> +5.4204686e+02 </wgt>
<wgt id='20'> +4.1433311e+02 </wgt>
<wgt id='21'> +5.0753228e+02 </wgt>
<wgt id='22'> +3.8963893e+02 </wgt>
<wgt id='23'> +5.0481800e+02 </wgt>
<wgt id='24'> +3.7972264e+02 </wgt>
<wgt id='25'> +4.6267608e+02 </wgt>
<wgt id='26'> +4.6519668e+02 </wgt>
<wgt id='27'> +3.5751077e+02 </wgt>
<wgt id='28'> +4.6267608e+02 </wgt>
<wgt id='29'> +3.4846970e+02 </wgt>
<wgt id='30'> +4.5648039e+02 </wgt>
<wgt id='31'> +4.5860242e+02 </wgt>
<wgt id='32'> +3.6290349e+02 </wgt>
<wgt id='33'> +4.5648039e+02 </wgt>
<wgt id='34'> +3.5414262e+02 </wgt>
<wgt id='35'> +4.2512841e+02 </wgt>
<wgt id='36'> +4.2725091e+02 </wgt>
<wgt id='37'> +3.3260852e+02 </wgt>
<wgt id='38'> +4.2512841e+02 </wgt>
<wgt id='39'> +3.2456004e+02 </wgt>
<wgt id='40'> +3.8963893e+02 </wgt>
<wgt id='41'> +3.9161195e+02 </wgt>
<wgt id='42'> +3.0518286e+02 </wgt>
<wgt id='43'> +3.8963893e+02 </wgt>
<wgt id='44'> +2.9784724e+02 </wgt>
<wgt id='45'> +5.0481800e+02 </wgt>
<wgt id='46'> +5.1885487e+02 </wgt>
<wgt id='47'> +5.1725770e+02 </wgt>
<wgt id='48'> +5.0421295e+02 </wgt>
<wgt id='49'> +4.7511748e+02 </wgt>
<wgt id='50'> +5.8897399e+02 </wgt>
<wgt id='51'> +4.8016561e+02 </wgt>
<wgt id='52'> +4.8471030e+02 </wgt>
<wgt id='53'> +5.0058081e+02 </wgt>
<wgt id='54'> +5.3029963e+02 </wgt>
<wgt id='55'> +5.4315564e+02 </wgt>
<wgt id='56'> +4.7706288e+02 </wgt>
<wgt id='57'> +5.3123652e+02 </wgt>
<wgt id='58'> +4.6938529e+02 </wgt>
<wgt id='59'> +5.4580972e+02 </wgt>
<wgt id='60'> +5.1004658e+02 </wgt>
<wgt id='61'> +4.5276190e+02 </wgt>
<wgt id='62'> +4.7512654e+02 </wgt>
<wgt id='63'> +5.2483474e+02 </wgt>
<wgt id='64'> +5.0401193e+02 </wgt>
<wgt id='65'> +4.8573666e+02 </wgt>
<wgt id='66'> +5.0588756e+02 </wgt>
<wgt id='67'> +5.0700111e+02 </wgt>
<wgt id='68'> +5.9086417e+02 </wgt>
<wgt id='69'> +5.2919267e+02 </wgt>
<wgt id='70'> +5.2654084e+02 </wgt>
<wgt id='71'> +4.8269225e+02 </wgt>
<wgt id='72'> +4.7511482e+02 </wgt>
<wgt id='73'> +4.6659720e+02 </wgt>
<wgt id='74'> +5.6239464e+02 </wgt>
<wgt id='75'> +5.3438840e+02 </wgt>
<wgt id='76'> +5.1528550e+02 </wgt>
<wgt id='77'> +4.8621839e+02 </wgt>
<wgt id='78'> +4.4854381e+02 </wgt>
<wgt id='79'> +5.2842224e+02 </wgt>
<wgt id='80'> +4.6187036e+02 </wgt>
<wgt id='81'> +5.1334044e+02 </wgt>
<wgt id='82'> +4.8951322e+02 </wgt>
<wgt id='83'> +4.9821470e+02 </wgt>
<wgt id='84'> +5.0415443e+02 </wgt>
<wgt id='85'> +4.7233997e+02 </wgt>
<wgt id='86'> +5.2096240e+02 </wgt>
<wgt id='87'> +5.0248815e+02 </wgt>
<wgt id='88'> +4.9262813e+02 </wgt>
<wgt id='89'> +4.5841970e+02 </wgt>
<wgt id='90'> +4.8760461e+02 </wgt>
<wgt id='91'> +4.6268953e+02 </wgt>
<wgt id='92'> +4.7284891e+02 </wgt>
<wgt id='93'> +5.0805374e+02 </wgt>
<wgt id='94'> +4.7127144e+02 </wgt>
<wgt id='95'> +5.2611736e+02 </wgt>
<wgt id='96'> +5.2681759e+02 </wgt>
<wgt id='97'> +4.6995415e+02 </wgt>
<wgt id='98'> +5.2654996e+02 </wgt>
<wgt id='99'> +4.4239687e+02 </wgt>
<wgt id='100'> +4.1212635e+02 </wgt>
<wgt id='101'> +5.7949501e+02 </wgt>
<wgt id='102'> +5.5482445e+02 </wgt>
<wgt id='103'> +5.0059450e+02 </wgt>
<wgt id='104'> +5.2859165e+02 </wgt>
<wgt id='105'> +5.1871822e+02 </wgt>
<wgt id='106'> +4.8378921e+02 </wgt>
<wgt id='107'> +4.8403212e+02 </wgt>
<wgt id='108'> +4.6657760e+02 </wgt>
<wgt id='109'> +4.9563095e+02 </wgt>
<wgt id='110'> +4.7761692e+02 </wgt>
<wgt id='111'> +4.9269307e+02 </wgt>
<wgt id='112'> +5.1328562e+02 </wgt>
<wgt id='113'> +5.1098934e+02 </wgt>
<wgt id='114'> +5.1637614e+02 </wgt>
<wgt id='115'> +4.6388811e+02 </wgt>
<wgt id='116'> +5.4377400e+02 </wgt>
<wgt id='117'> +4.9286353e+02 </wgt>
<wgt id='118'> +5.2397925e+02 </wgt>
<wgt id='119'> +5.3632638e+02 </wgt>
<wgt id='120'> +5.0259673e+02 </wgt>
<wgt id='121'> +5.0207116e+02 </wgt>
<wgt id='122'> +4.9703877e+02 </wgt>
<wgt id='123'> +4.8954729e+02 </wgt>
<wgt id='124'> +5.6640501e+02 </wgt>
<wgt id='125'> +6.0866506e+02 </wgt>
<wgt id='126'> +5.0069321e+02 </wgt>
<wgt id='127'> +4.9369685e+02 </wgt>
<wgt id='128'> +4.7644898e+02 </wgt>
<wgt id='129'> +5.2872225e+02 </wgt>
<wgt id='130'> +4.8452133e+02 </wgt>
<wgt id='131'> +4.8156057e+02 </wgt>
<wgt id='132'> +5.5193089e+02 </wgt>
<wgt id='133'> +5.4202148e+02 </wgt>
<wgt id='134'> +5.2118351e+02 </wgt>
<wgt id='135'> +4.9092393e+02 </wgt>
<wgt id='136'> +5.7916421e+02 </wgt>
<wgt id='137'> +5.1219497e+02 </wgt>
<wgt id='138'> +5.0275808e+02 </wgt>
<wgt id='139'> +5.2052580e+02 </wgt>
<wgt id='140'> +4.9759607e+02 </wgt>
<wgt id='141'> +5.5104733e+02 </wgt>
<wgt id='142'> +3.9400185e+02 </wgt>
<wgt id='143'> +5.2008226e+02 </wgt>
<wgt id='144'> +4.7086709e+02 </wgt>
<wgt id='145'> +4.7465451e+02 </wgt>
</rwgt>
</event>
<event>
 4      1 +5.0481800e+02 1.80180200e+02 7.54677100e-03 1.16762900e-01
       21 -1    0    0  503  502 +0.0000000000e+00 +0.0000000000e+00 +4.5208864154e+01 4.5208864154e+01 0.0000000000e+00 0.0000e+00 1.0000e+00
       21 -1    0    0  501  503 -0.0000000000e+00 -0.0000000000e+00 -7.2043993165e+02 7.2043993165e+02 0.0000000000e+00 0.0000e+00 1.0000e+00
        6  1    1    2  501    0 +3.5822072911e+01 -3.5393496670e+01 -3.5938797843e+02 4.0202567027e+02 1.7300000000e+02 0.0000e+00 1.0000e+00
       -6  1    1    2    0  502 -3.5822072911e+01 +3.5393496670e+01 -3.1584308907e+02 3.6362312554e+02 1.7300000000e+02 0.0000e+00 1.0000e+00
<mgrwt>
<rscale>  2 0.18018024E+03</rscale>
<asrwt>0</asrwt>
<pdfrwt beam="1">  1       21 0.69552099E-02 0.18018024E+03</pdfrwt>
<pdfrwt beam="2">  1       21 0.11083691E+00 0.18018024E+03</pdfrwt>
<totfact> 0.98597375E+04</totfact>
</mgrwt>
<rwgt>
<wgt id='1'> +6.4868610e+02 </wgt>
<wgt id='2'> +7.7423095e+02 </wgt>
<wgt id='3'> +5.0481800e+02 </wgt>
<wgt id='4'> +6.4868609e+02 </wgt>
<wgt id='5'> +5.0453101e+02 </wgt>
<wgt id='6'> +6.2140000e+02 </wgt>
<wgt id='7'> +7.4697981e+02 </wgt>
<wgt id='8'> +4.7414869e+02 </wgt>
<wgt id='9'> +6.2139999e+02 </wgt>
<wgt id='10'> +4.7386936e+02 </wgt>
<wgt id='11'> +5.8364797e+02 </wgt>
<wgt id='12'> +7.1051620e+02 </wgt>
<wgt id='13'> +4.4459073e+02 </wgt>
<wgt id='14'> +5.8364796e+02 </wgt>
<wgt id='15'> +4.4432828e+02 </wgt>
<wgt id='16'> +5.2698490e+02 </wgt>
<wgt id='17'> +6.1833750e+02 </wgt>
<wgt id='18'> +4.2416348e+02 </wgt>
<wgt id='19'> +5.2698490e+02 </wgt>
<wgt id='20'> +4.2394410e+02 </wgt>
<wgt id='21'> +5.9657345e+02 </wgt>
<wgt id='22'> +3.9839420e+02 </wgt>
<wgt id='23'> +5.0481800e+02 </wgt>
<wgt id='24'> +3.9817993e+02 </wgt>
<wgt id='25'> +4.7414869e+02 </wgt>
<wgt id='26'> +5.6745189e+02 </wgt>
<wgt id='27'> +3.7355870e+02 </wgt>
<wgt id='28'> +4.7414869e+02 </wgt>
<wgt id='29'> +3.7335734e+02 </wgt>
<wgt id='30'> +4.4278879e+02 </wgt>
<wgt id='31'> +5.0831676e+02 </wgt>
<wgt id='32'> +3.6157091e+02 </wgt>
<wgt id='33'> +4.4278879e+02 </wgt>
<wgt id='34'> +3.6139460e+02 </wgt>
<wgt id='35'> +4.2416349e+02 </wgt>
<wgt id='36'> +4.9042519e+02 </wgt>
<wgt id='37'> +3.3960432e+02 </wgt>
<wgt id='38'> +4.2416348e+02 </wgt>
<wgt id='39'> +3.3943172e+02 </wgt>
<wgt id='40'> +3.9839420e+02 </wgt>
<wgt id='41'> +4.6648522e+02 </wgt>
<wgt id='42'> +3.1843372e+02 </wgt>
<wgt id='43'> +3.9839420e+02 </wgt>
<wgt id='44'> +3.1827150e+02 </wgt>
<wgt id='45'> +5.0481800e+02 </wgt>
<wgt id='46'> +5.1505848e+02 </wgt>
<wgt id='47'> +5.1573723e+02 </wgt>
<wgt id='48'> +5.0608199e+02 </wgt>
<wgt id='49'> +4.9414807e+02 </wgt>
<wgt id='50'> +5.8683116e+02 </wgt>
<wgt id='51'> +4.9102916e+02 </wgt>
<wgt id='52'> +5.0239686e+02 </wgt>
<wgt id='53'> +4.9735227e+02 </wgt>
<wgt id='54'> +5.1559242e+02 </wgt>
<wgt id='55'> +4.9305135e+02 </wgt>
<wgt id='56'> +4.6703813e+02 </wgt>
<wgt id='57'> +5.1265314e+02 </wgt>
<wgt id='58'> +4.9319122e+02 </wgt>
<wgt id='59'> +5.2826923e+02 </wgt>
<wgt id='60'> +5.0870109e+02 </wgt>
<wgt id='61'> +4.4353590e+02 </wgt>
<wgt id='62'> +4.9247562e+02 </wgt>
<wgt id='63'> +5.0986317e+02 </wgt>
<wgt id='64'> +4.9882149e+02 </wgt>
<wgt id='65'> +5.3908133e+02 </wgt>
<wgt id='66'> +4.9750478e+02 </wgt>
<wgt id='67'> +5.0706482e+02 </wgt>
<wgt id='68'> +5.5709667e+02 </wgt>
<wgt id='69'> +5.0389092e+02 </wgt>
<wgt id='70'> +5.0287482e+02 </wgt>
<wgt id='71'> +5.0509394e+02 </wgt>
<wgt id='72'> +4.9018554e+02 </wgt>
<wgt id='73'> +4.8745739e+02 </wgt>
<wgt id='74'> +5.3526642e+02 </wgt>
<wgt id='75'> +5.1639392e+02 </wgt>
<wgt id='76'> +5.0291576e+02 </wgt>
<wgt id='77'> +4.9537773e+02 </wgt>
<wgt id='78'> +4.7828873e+02 </wgt>
<wgt id='79'> +5.0470884e+02 </wgt>
<wgt id='80'> +4.8762308e+02 </wgt>
<wgt id='81'> +4.9911585e+02 </wgt>
<wgt id='82'> +4.9388554e+02 </wgt>
<wgt id='83'> +5.0518197e+02 </wgt>
<wgt id='84'> +5.2967402e+02 </wgt>
<wgt id='85'> +5.0545192e+02 </wgt>
<wgt id='86'> +5.0779677e+02 </wgt>
<wgt id='87'> +5.0748573e+02 </wgt>
<wgt id='88'> +5.0158655e+02 </wgt>
<wgt id='89'> +5.0327293e+02 </wgt>
<wgt id='90'> +5.1130606e+02 </wgt>
<wgt id='91'> +5.0650846e+02 </wgt>
<wgt id='92'> +4.6943797e+02 </wgt>
<wgt id='93'> +5.0338062e+02 </wgt>
<wgt id='94'> +4.8904674e+02 </wgt>
<wgt id='95'> +5.0640023e+02 </wgt>
<wgt id='96'> +5.3159791e+02 </wgt>
<wgt id='97'> +4.9460578e+02 </wgt>
<wgt id='98'> +4.9942261e+02 </wgt>
<wgt id='99'> +4.7551609e+02 </wgt>
<wgt id='100'> +4.6499432e+02 </wgt>
<wgt id='101'> +5.5679765e+02 </wgt>
<wgt id='102'> +5.2341773e+02 </wgt>
<wgt id='103'> +5.3306637e+02 </wgt>
<wgt id='104'> +5.0982369e+02 </wgt>
<wgt id='105'> +5.2133865e+02 </wgt>
<wgt id='106'> +4.6992681e+02 </wgt>
<wgt id='107'> +4.8439607e+02 </wgt>
<wgt id='108'> +4.5461350e+02 </wgt>
<wgt id='109'> +4.8330532e+02 </wgt>
<wgt id='110'> +4.9877720e+02 </wgt>
<wgt id='111'> +4.9316026e+02 </wgt>
<wgt id='112'> +4.8643351e+02 </wgt>
<wgt id='113'> +4.7874801e+02 </wgt>
<wgt id='114'> +5.0033240e+02 </wgt>
<wgt id='115'> +4.7549784e+02 </wgt>
<wgt id='116'> +5.2269478e+02 </wgt>
<wgt id='117'> +4.9698790e+02 </wgt>
<wgt id='118'> +5.2602274e+02 </wgt>
<wgt id='119'> +5.0248247e+02 </wgt>
<wgt id='120'> +4.9450725e+02 </wgt>
<wgt id='121'> +5.0060090e+02 </wgt>
<wgt id='122'> +5.0000257e+02 </wgt>
<wgt id='123'> +5.0310414e+02 </wgt>
<wgt id='124'> +5.5504954e+02 </wgt>
<wgt id='125'> +5.6552403e+02 </wgt>
<wgt id='126'> +5.1465831e+02 </wgt>
<wgt id='127'> +5.1250114e+02 </wgt>
<wgt id='128'> +4.6264536e+02 </wgt>
<wgt id='129'> +5.5469317e+02 </wgt>
<wgt id='130'> +4.9426575e+02 </wgt>
<wgt id='131'> +5.1678507e+02 </wgt>
<wgt id='132'> +5.3526241e+02 </wgt>
<wgt id='133'> +5.2140656e+02 </wgt>
<wgt id='134'> +4.9848715e+02 </wgt>
<wgt id='135'> +5.0779505e+02 </wgt>
<wgt id='136'> +5.3305503e+02 </wgt>
<wgt id='137'> +4.8754463e+02 </wgt>
<wgt id='138'> +4.7721442e+02 </wgt>
<wgt id='139'> +5.1966595e+02 </wgt>
<wgt id='140'> +5.1431603e+02 </wgt>
<wgt id='141'> +5.1720622e+02 </wgt>
<wgt id='142'> +4.6657800e+02 </wgt>
<wgt id='143'> +5.1719768e+02 </wgt>
<wgt id='144'> +4.9309534e+02 </wgt>
<wgt id='145'> +4.9598238e+02 </wgt>
</rwgt>
</event>
<event>
 4      1 +5.0481800e+02 1.93644900e+02 7.54677100e-03 1.15521400e-01
       21 -1    0    0  503  502 +0.0000000000e+00 +0.0000000000e+00 +1.2932278992e+02 1.2932278992e+02 0.0000000000e+00 0.0000e+00 1.0000e+00
       21 -1    0    0  501  503 -0.0000000000e+00 -0.0000000000e+00 -2.9558170059e+02 2.9558170059e+02 0.0000000000e+00 0.0000e+00 -1.0000e+00
        6  1    1    2  501    0 +5.2403671542e+01 +6.9449358725e+01 -1.1243026959e+02 2.2391722519e+02 1.7300000000e+02 0.0000e+00 -1.0000e+00
       -6  1    1    2    0  502 -5.2403671542e+01 -6.9449358725e+01 -5.3828641082e+01 2.0098726532e+02 1.7300000000e+02 0.0000e+00 -1.0000e+00
<mgrwt>
<rscale>  2 0.19364493E+03</rscale>
<asrwt>0</asrwt>
<pdfrwt beam="1">  1       21 0.19895814E-01 0.19364493E+03</pdfrwt>
<pdfrwt beam="2">  1       21 0.45474107E-01 0.19364493E+03</pdfrwt>
<totfact> 0.10806652E+05</totfact>
</mgrwt>
<rwgt>
<wgt id='1'> +6.4316833e+02 </wgt>
<wgt id='2'> +5.4601892e+02 </wgt>
<wgt id='3'> +5.0481800e+02 </wgt>
<wgt id='4'> +6.4316833e+02 </wgt>
<wgt id='5'> +5.0317732e+02 </wgt>
<wgt id='6'> +6.1931721e+02 </wgt>
<wgt id='7'> +5.1802769e+02 </wgt>
<wgt id='8'> +4.7711687e+02 </wgt>
<wgt id='9'> +6.1931721e+02 </wgt>
<wgt id='10'> +4.7553053e+02 </wgt>
<wgt id='11'> +5.8533310e+02 </wgt>
<wgt id='12'> +4.8914696e+02 </wgt>
<wgt id='13'> +4.5039409e+02 </wgt>
<wgt id='14'> +5.8533311e+02 </wgt>
<wgt id='15'> +4.4889254e+02 </wgt>
<wgt id='16'> +5.2425953e+02 </wgt>
<wgt id='17'> +4.5602068e+02 </wgt>
<wgt id='18'> +4.2506764e+02 </wgt>
<wgt id='19'> +5.2425953e+02 </wgt>
<wgt id='20'> +4.2379470e+02 </wgt>
<wgt id='21'> +4.3264313e+02 </wgt>
<wgt id='22'> +4.0174269e+02 </wgt>
<wgt id='23'> +5.0481800e+02 </wgt>
<wgt id='24'> +4.0050955e+02 </wgt>
<wgt id='25'> +4.7711687e+02 </wgt>
<wgt id='26'> +4.0852270e+02 </wgt>
<wgt id='27'> +3.7924153e+02 </wgt>
<wgt id='28'> +4.7711687e+02 </wgt>
<wgt id='29'> +3.7807404e+02 </wgt>
<wgt id='30'> +4.4143782e+02 </wgt>
<wgt id='31'> +3.8758298e+02 </wgt>
<wgt id='32'> +3.6281680e+02 </wgt>
<wgt id='33'> +4.4143783e+02 </wgt>
<wgt id='34'> +3.6179314e+02 </wgt>
<wgt id='35'> +4.2506764e+02 </wgt>
<wgt id='36'> +3.6771384e+02 </wgt>
<wgt id='37'> +3.4290777e+02 </wgt>
<wgt id='38'> +4.2506764e+02 </wgt>
<wgt id='39'> +3.4191463e+02 </wgt>
<wgt id='40'> +4.0174269e+02 </wgt>
<wgt id='41'> +3.4721330e+02 </wgt>
<wgt id='42'> +3.2370189e+02 </wgt>
<wgt id='43'> +4.0174269e+02 </wgt>
<wgt id='44'> +3.2276145e+02 </wgt>
<wgt id='45'> +5.0481800e+02 </wgt>
<wgt id='46'> +5.0263932e+02 </wgt>
<wgt id='47'> +5.2077320e+02 </wgt>
<wgt id='48'> +5.0466367e+02 </wgt>
<wgt id='49'> +5.0387411e+02 </wgt>
<wgt id='50'> +5.8056740e+02 </wgt>
<wgt id='51'> +4.9518597e+02 </wgt>
<wgt id='52'> +5.0157606e+02 </wgt>
<wgt id='53'> +5.1220146e+02 </wgt>
<wgt id='54'> +5.0766294e+02 </wgt>
<wgt id='55'> +4.5340345e+02 </wgt>
<wgt id='56'> +4.7284148e+02 </wgt>
<wgt id='57'> +4.9209394e+02 </wgt>
<wgt id='58'> +5.1043536e+02 </wgt>
<wgt id='59'> +4.9568297e+02 </wgt>
<wgt id='60'> +4.8292328e+02 </wgt>
<wgt id='61'> +4.9590711e+02 </wgt>
<wgt id='62'> +4.9777052e+02 </wgt>
<wgt id='63'> +5.0526062e+02 </wgt>
<wgt id='64'> +5.0231934e+02 </wgt>
<wgt id='65'> +5.9289126e+02 </wgt>
<wgt id='66'> +4.9256655e+02 </wgt>
<wgt id='67'> +5.0932288e+02 </wgt>
<wgt id='68'> +5.3749544e+02 </wgt>
<wgt id='69'> +4.8943081e+02 </wgt>
<wgt id='70'> +4.9717287e+02 </wgt>
<wgt id='71'> +5.1441793e+02 </wgt>
<wgt id='72'> +4.9585946e+02 </wgt>
<wgt id='73'> +4.9947159e+02 </wgt>
<wgt id='74'> +5.1704815e+02 </wgt>
<wgt id='75'> +5.1495859e+02 </wgt>
<wgt id='76'> +4.9131955e+02 </wgt>
<wgt id='77'> +4.8536958e+02 </wgt>
<wgt id='78'> +5.0747332e+02 </wgt>
<wgt id='79'> +4.8336970e+02 </wgt>
<wgt id='80'> +5.0149505e+02 </wgt>
<wgt id='81'> +4.9676527e+02 </wgt>
<wgt id='82'> +5.1923682e+02 </wgt>
<wgt id='83'> +5.1342562e+02 </wgt>
<wgt id='84'> +5.5170981e+02 </wgt>
<wgt id='85'> +5.3027905e+02 </wgt>
<wgt id='86'> +4.9998405e+02 </wgt>
<wgt id='87'> +5.0399009e+02 </wgt>
<wgt id='88'> +5.1228696e+02 </wgt>
<wgt id='89'> +5.1533153e+02 </wgt>
<wgt id='90'> +5.0975488e+02 </wgt>
<wgt id='91'> +5.3697612e+02 </wgt>
<wgt id='92'> +4.7017236e+02 </wgt>
<wgt id='93'> +4.9496200e+02 </wgt>
<wgt id='94'> +5.0397659e+02 </wgt>
<wgt id='95'> +4.8612328e+02 </wgt>
<wgt id='96'> +5.4102309e+02 </wgt>
<wgt id='97'> +5.1381413e+02 </wgt>
<wgt id='98'> +4.8163419e+02 </wgt>
<wgt id='99'> +4.9135116e+02 </wgt>
<wgt id='100'> +5.0500891e+02 </wgt>
<wgt id='101'> +5.2511936e+02 </wgt>
<wgt id='102'> +4.8662368e+02 </wgt>
<wgt id='103'> +5.4518955e+02 </wgt>
<wgt id='104'> +5.0249797e+02 </wgt>
<wgt id='105'> +5.2632623e+02 </wgt>
<wgt id='106'> +4.6938487e+02 </wgt>
<wgt id='107'> +5.0278548e+02 </wgt>
<wgt id='108'> +4.5730018e+02 </wgt>
<wgt id='109'> +4.7741839e+02 </wgt>
<wgt id='110'> +5.0667681e+02 </wgt>
<wgt id='111'> +4.9340406e+02 </wgt>
<wgt id='112'> +4.8432995e+02 </wgt>
<wgt id='113'> +4.6633422e+02 </wgt>
<wgt id='114'> +5.0757006e+02 </wgt>
<wgt id='115'> +5.0923178e+02 </wgt>
<wgt id='116'> +5.0071213e+02 </wgt>
<wgt id='117'> +5.1257281e+02 </wgt>
<wgt id='118'> +5.1399979e+02 </wgt>
<wgt id='119'> +4.8705897e+02 </wgt>
<wgt id='120'> +5.0481530e+02 </wgt>
<wgt id='121'> +4.9241935e+02 </wgt>
<wgt id='122'> +4.9896195e+02 </wgt>
<wgt id='123'> +5.0998029e+02 </wgt>
<wgt id='124'> +5.3425465e+02 </wgt>
<wgt id='125'> +5.3595189e+02 </wgt>
<wgt id='126'> +5.2206268e+02 </wgt>
<wgt id='127'> +5.1808818e+02 </wgt>
<wgt id='128'> +4.7125890e+02 </wgt>
<wgt id='129'> +5.6899274e+02 </wgt>
<wgt id='130'> +5.0744987e+02 </wgt>
<wgt id='131'> +5.4003934e+02 </wgt>
<wgt id='132'> +4.9772082e+02 </wgt>
<wgt id='133'> +4.9888654e+02 </wgt>
<wgt id='134'> +4.7525433e+02 </wgt>
<wgt id='135'> +5.1749859e+02 </wgt>
<wgt id='136'> +4.8312277e+02 </wgt>
<wgt id='137'> +4.7478596e+02 </wgt>
<wgt id='138'> +4.5652230e+02 </wgt>
<wgt id='139'> +5.1300346e+02 </wgt>
<wgt id='140'> +5.3735857e+02 </wgt>
<wgt id='141'> +5.0319705e+02 </wgt>
<wgt id='142'> +5.1116198e+02 </wgt>
<wgt id='143'> +4.9955595e+02 </wgt>
<wgt id='144'> +5.0649481e+02 </wgt>
<wgt id='145'> +5.0587402e+02 </wgt>
</rwgt>
</event>
<event>
 4      1 +5.0481800e+02 2.14911100e+02 7.54677100e-03 1.13773500e-01
       21 -1    0    0  503  502 +0.0000000000e+00 +0.0000000000e+00 +1.3781418415e+02 1.3781418415e+02 0.0000000000e+00 0.0000e+00 1.0000e+00
       21 -1    0    0  501  503 -0.0000000000e+00 -0.0000000000e+00 -5.8395029121e+02 5.8395029121e+02 0.0000000000e+00 0.0000e+00 -1.0000e+00
        6  1    1    2  501    0 -1.1263647673e+02 -5.9756204228e+01 -4.5863449455e+02 5.0649025600e+02 1.7300000000e+02 0.0000e+00 -1.0000e+00
       -6  1    1    2    0  502 +1.1263647673e+02 +5.9756204228e+01 +1.2498387488e+01 2.1527421936e+02 1.7300000000e+02 0.0000e+00 1.0000e+00
<mgrwt>
<rscale>  2 0.21491110E+03</rscale>
<asrwt>0</asrwt>
<pdfrwt beam="1">  1       21 0.21202182E-01 0.21491110E+03</pdfrwt>
<pdfrwt beam="2">  1       21 0.89838506E-01 0.21491110E+03</pdfrwt>
<totfact> 0.21543297E+04</totfact>
</mgrwt>
<rwgt>
<wgt id='1'> +6.6171878e+02 </wgt>
<wgt id='2'> +5.4601362e+02 </wgt>
<wgt id='3'> +5.0481800e+02 </wgt>
<wgt id='4'> +6.6171878e+02 </wgt>
<wgt id='5'> +4.5513556e+02 </wgt>
<wgt id='6'> +6.1581178e+02 </wgt>
<wgt id='7'> +5.0221154e+02 </wgt>
<wgt id='8'> +4.6399892e+02 </wgt>
<wgt id='9'> +6.1581178e+02 </wgt>
<wgt id='10'> +4.1860889e+02 </wgt>
<wgt id='11'> +5.6601785e+02 </wgt>
<wgt id='12'> +4.6212943e+02 </wgt>
<wgt id='13'> +4.2719073e+02 </wgt>
<wgt id='14'> +5.6601785e+02 </wgt>
<wgt id='15'> +3.8570033e+02 </wgt>
<wgt id='16'> +5.4245073e+02 </wgt>
<wgt id='17'> +4.5833527e+02 </wgt>
<wgt id='18'> +4.2604534e+02 </wgt>
<wgt id='19'> +5.4245073e+02 </wgt>
<wgt id='20'> +3.8622105e+02 </wgt>
<wgt id='21'> +4.2156688e+02 </wgt>
<wgt id='22'> +3.9159574e+02 </wgt>
<wgt id='23'> +5.0481800e+02 </wgt>
<wgt id='24'> +3.5522507e+02 </wgt>
<wgt id='25'> +4.6399892e+02 </wgt>
<wgt id='26'> +3.8792113e+02 </wgt>
<wgt id='27'> +3.6053116e+02 </wgt>
<wgt id='28'> +4.6399892e+02 </wgt>
<wgt id='29'> +3.2729937e+02 </wgt>
<wgt id='30'> +4.5780579e+02 </wgt>
<wgt id='31'> +3.9048865e+02 </wgt>
<wgt id='32'> +3.6433170e+02 </wgt>
<wgt id='33'> +4.5780579e+02 </wgt>
<wgt id='34'> +3.3184931e+02 </wgt>
<wgt id='35'> +4.2604534e+02 </wgt>
<wgt id='36'> +3.5916302e+02 </wgt>
<wgt id='37'> +3.3487220e+02 </wgt>
<wgt id='38'> +4.2604534e+02 </wgt>
<wgt id='39'> +3.0521691e+02 </wgt>
<wgt id='40'> +3.9159573e+02 </wgt>
<wgt id='41'> +3.3049779e+02 </wgt>
<wgt id='42'> +3.0830739e+02 </wgt>
<wgt id='43'> +3.9159574e+02 </wgt>
<wgt id='44'> +2.8122256e+02 </wgt>
<wgt id='45'> +5.0481800e+02 </wgt>
<wgt id='46'> +5.1527677e+02 </wgt>
<wgt id='47'> +5.2388451e+02 </wgt>
<wgt id='48'> +5.0993593e+02 </wgt>
<wgt id='49'> +4.9793421e+02 </wgt>
<wgt id='50'> +6.0881836e+02 </wgt>
<wgt id='51'> +4.9264009e+02 </wgt>
<wgt id='52'> +5.0319365e+02 </wgt>
<wgt id='53'> +5.0086313e+02 </wgt>
<wgt id='54'> +5.1198394e+02 </wgt>
<wgt id='55'> +4.6845663e+02 </wgt>
<wgt id='56'> +4.5994157e+02 </wgt>
<wgt id='57'> +5.0180286e+02 </wgt>
<wgt id='58'> +4.9468616e+02 </wgt>
<wgt id='59'> +5.1804388e+02 </wgt>
<wgt id='60'> +4.9874727e+02 </wgt>
<wgt id='61'> +4.5089692e+02 </wgt>
<wgt id='62'> +4.9602805e+02 </wgt>
<wgt id='63'> +5.0680952e+02 </wgt>
<wgt id='64'> +4.9411663e+02 </wgt>
<wgt id='65'> +5.7351272e+02 </wgt>
<wgt id='66'> +4.9576593e+02 </wgt>
<wgt id='67'> +5.0826660e+02 </wgt>
<wgt id='68'> +5.5675679e+02 </wgt>
<wgt id='69'> +5.0554301e+02 </wgt>
<wgt id='70'> +4.9756251e+02 </wgt>
<wgt id='71'> +5.1043218e+02 </wgt>
<wgt id='72'> +4.8032824e+02 </wgt>
<wgt id='73'> +4.8912488e+02 </wgt>
<wgt id='74'> +5.3382783e+02 </wgt>
<wgt id='75'> +5.1823435e+02 </wgt>
<wgt id='76'> +4.9494583e+02 </wgt>
<wgt id='77'> +4.9304324e+02 </wgt>
<wgt id='78'> +4.8576366e+02 </wgt>
<wgt id='79'> +4.9609256e+02 </wgt>
<wgt id='80'> +4.9159537e+02 </wgt>
<wgt id='81'> +4.9434512e+02 </wgt>
<wgt id='82'> +5.0229471e+02 </wgt>
<wgt id='83'> +5.1446198e+02 </wgt>
<wgt id='84'> +5.4847010e+02 </wgt>
<wgt id='85'> +5.1907520e+02 </wgt>
<wgt id='86'> +5.0803912e+02 </wgt>
<wgt id='87'> +5.0798562e+02 </wgt>
<wgt id='88'> +5.1050184e+02 </wgt>
<wgt id='89'> +5.1264582e+02 </wgt>
<wgt id='90'> +5.1323952e+02 </wgt>
<wgt id='91'> +5.2159445e+02 </wgt>
<wgt id='92'> +4.5559897e+02 </wgt>
<wgt id='93'> +5.0201363e+02 </wgt>
<wgt id='94'> +4.9141278e+02 </wgt>
<wgt id='95'> +4.9272649e+02 </wgt>
<wgt id='96'> +5.4714315e+02 </wgt>
<wgt id='97'> +5.0101877e+02 </wgt>
<wgt id='98'> +4.9125055e+02 </wgt>
<wgt id='99'> +4.7917664e+02 </wgt>
<wgt id='100'> +4.7282146e+02 </wgt>
<wgt id='101'> +5.5574983e+02 </wgt>
<wgt id='102'> +5.1583374e+02 </wgt>
<wgt id='103'> +5.4685940e+02 </wgt>
<wgt id='104'> +5.1059043e+02 </wgt>
<wgt id='105'> +5.2020107e+02 </wgt>
<wgt id='106'> +4.5668912e+02 </wgt>
<wgt id='107'> +4.8166244e+02 </wgt>
<wgt id='108'> +4.4280513e+02 </wgt>
<wgt id='109'> +4.7204031e+02 </wgt>
<wgt id='110'> +4.9972067e+02 </wgt>
<wgt id='111'> +4.8944123e+02 </wgt>
<wgt id='112'> +4.7732899e+02 </wgt>
<wgt id='113'> +4.6474028e+02 </wgt>
<wgt id='114'> +4.9356868e+02 </wgt>
<wgt id='115'> +4.8324571e+02 </wgt>
<wgt id='116'> +5.2196760e+02 </wgt>
<wgt id='117'> +5.0180411e+02 </wgt>
<wgt id='118'> +5.2968379e+02 </wgt>
<wgt id='119'> +4.8976635e+02 </wgt>
<wgt id='120'> +4.9426299e+02 </wgt>
<wgt id='121'> +4.9192699e+02 </wgt>
<wgt id='122'> +4.9826365e+02 </wgt>
<wgt id='123'> +5.1028430e+02 </wgt>
<wgt id='124'> +5.5828756e+02 </wgt>
<wgt id='125'> +5.6274905e+02 </wgt>
<wgt id='126'> +5.2336599e+02 </wgt>
<wgt id='127'> +5.1946823e+02 </wgt>
<wgt id='128'> +4.5988148e+02 </wgt>
<wgt id='129'> +5.6898261e+02 </wgt>
<wgt id='130'> +5.0403101e+02 </wgt>
<wgt id='131'> +5.2948169e+02 </wgt>
<wgt id='132'> +5.2275444e+02 </wgt>
<wgt id='133'> +5.1705041e+02 </wgt>
<wgt id='134'> +4.8636158e+02 </wgt>
<wgt id='135'> +5.1305521e+02 </wgt>
<wgt id='136'> +5.1222087e+02 </wgt>
<wgt id='137'> +4.8322412e+02 </wgt>
<wgt id='138'> +4.7415548e+02 </wgt>
<wgt id='139'> +5.1992873e+02 </wgt>
<wgt id='140'> +5.2316171e+02 </wgt>
<wgt id='141'> +5.1282099e+02 </wgt>
<wgt id='142'> +4.7897396e+02 </wgt>
<wgt id='143'> +5.1128594e+02 </wgt>
<wgt id='144'> +4.9397556e+02 </wgt>
<wgt id='145'> +5.0210122e+02 </wgt>
</rwgt>
</event>
<event>
 4      1 +5.0481800e+02 2.57849200e+02 7.54677100e-03 1.10844200e-01
       21 -1    0    0  503  502 +0.0000000000e+00 +0.0000000000e+00 +7.8700712662e+02 7.8700712662e+02 0.0000000000e+00 0.0000e+00 1.0000e+00
       21 -1    0    0  501  503 -0.0000000000e+00 -0.0000000000e+00 -1.3595861261e+02 1.3595861261e+02 0.0000000000e+00 0.0000e+00 1.0000e+00
        6  1    1    2  501    0 -7.9163568541e+01 -1.7404116754e+02 +4.1558144805e+01 2.6117671792e+02 1.7300000000e+02 0.0000e+00 1.0000e+00
       -6  1    1    2    0  502 +7.9163568541e+01 +1.7404116754e+02 +6.0949036920e+02 6.6178902132e+02 1.7300000000e+02 0.0000e+00 1.0000e+00
<mgrwt>
<rscale>  2 0.25784918E+03</rscale>
<asrwt>0</asrwt>
<pdfrwt beam="1">  1       21 0.12107802E+00 0.25784918E+03</pdfrwt>
<pdfrwt beam="2">  1       21 0.20916710E-01 0.25784918E+03</pdfrwt>
<totfact> 0.10517109E+04</totfact>
</mgrwt>
<rwgt>
<wgt id='1'> +6.6857729e+02 </wgt>
<wgt id='2'> +5.3117149e+02 </wgt>
<wgt id='3'> +5.0481800e+02 </wgt>
<wgt id='4'> +6.6857729e+02 </wgt>
<wgt id='5'> +4.6030116e+02 </wgt>
<wgt id='6'> +6.0989848e+02 </wgt>
<wgt id='7'> +4.8159791e+02 </wgt>
<wgt id='8'> +4.5793110e+02 </wgt>
<wgt id='9'> +6.0989848e+02 </wgt>
<wgt id='10'> +4.1793700e+02 </wgt>
<wgt id='11'> +5.5325183e+02 </wgt>
<wgt id='12'> +4.3786910e+02 </wgt>
<wgt id='13'> +4.1658456e+02 </wgt>
<wgt id='14'> +5.5325183e+02 </wgt>
<wgt id='15'> +3.8060288e+02 </wgt>
<wgt id='16'> +5.5338694e+02 </wgt>
<wgt id='17'> +4.4873407e+02 </wgt>
<wgt id='18'> +4.2757463e+02 </wgt>
<wgt id='19'> +5.5338694e+02 </wgt>
<wgt id='20'> +3.9166807e+02 </wgt>
<wgt id='21'> +4.0685427e+02 </wgt>
<wgt id='22'> +3.8786200e+02 </wgt>
<wgt id='23'> +5.0481800e+02 </wgt>
<wgt id='24'> +3.5562061e+02 </wgt>
<wgt id='25'> +4.5793110e+02 </wgt>
<wgt id='26'> +3.6991214e+02 </wgt>
<wgt id='27'> +3.5284199e+02 </wgt>
<wgt id='28'> +4.5793110e+02 </wgt>
<wgt id='29'> +3.2385319e+02 </wgt>
<wgt id='30'> +4.6871191e+02 </wgt>
<wgt id='31'> +3.8409080e+02 </wgt>
<wgt id='32'> +3.6679458e+02 </wgt>
<wgt id='33'> +4.6871192e+02 </wgt>
<wgt id='34'> +3.3731502e+02 </wgt>
<wgt id='35'> +4.2757462e+02 </wgt>
<wgt id='36'> +3.4824408e+02 </wgt>
<wgt id='37'> +3.3272714e+02 </wgt>
<wgt id='38'> +4.2757463e+02 </wgt>
<wgt id='39'> +3.0626998e+02 </wgt>
<wgt id='40'> +3.8786200e+02 </wgt>
<wgt id='41'> +3.1662372e+02 </wgt>
<wgt id='42'> +3.0268525e+02 </wgt>
<wgt id='43'> +3.8786200e+02 </wgt>
<wgt id='44'> +2.7891102e+02 </wgt>
<wgt id='45'> +5.0481800e+02 </wgt>
<wgt id='46'> +5.2018166e+02 </wgt>
<wgt id='47'> +5.2352282e+02 </wgt>
<wgt id='48'> +5.0978191e+02 </wgt>
<wgt id='49'> +4.8940550e+02 </wgt>
<wgt id='50'> +6.1512411e+02 </wgt>
<wgt id='51'> +4.8815827e+02 </wgt>
<wgt id='52'> +4.9842807e+02 </wgt>
<wgt id='53'> +4.9810361e+02 </wgt>
<wgt id='54'> +5.1894105e+02 </wgt>
<wgt id='55'> +4.9143709e+02 </wgt>
<wgt id='56'> +4.5991472e+02 </wgt>
<wgt id='57'> +5.1273540e+02 </wgt>
<wgt id='58'> +4.8200535e+02 </wgt>
<wgt id='59'> +5.3177144e+02 </wgt>
<wgt id='60'> +5.0444101e+02 </wgt>
<wgt id='61'> +4.3651037e+02 </wgt>
<wgt id='62'> +4.8973059e+02 </wgt>
<wgt id='63'> +5.1192708e+02 </wgt>
<wgt id='64'> +4.9487814e+02 </wgt>
<wgt id='65'> +5.4723502e+02 </wgt>
<wgt id='66'> +4.9950651e+02 </wgt>
<wgt id='67'> +5.0744644e+02 </wgt>
<wgt id='68'> +5.7105470e+02 </wgt>
<wgt id='69'> +5.1759031e+02 </wgt>
<wgt id='70'> +5.0443647e+02 </wgt>
<wgt id='71'> +5.0212952e+02 </wgt>
<wgt id='72'> +4.7401351e+02 </wgt>
<wgt id='73'> +4.7868661e+02 </wgt>
<wgt id='74'> +5.4618442e+02 </wgt>
<wgt id='75'> +5.2315197e+02 </wgt>
<wgt id='76'> +5.0161808e+02 </wgt>
<wgt id='77'> +4.9300704e+02 </wgt>
<wgt id='78'> +4.6950410e+02 </wgt>
<wgt id='79'> +5.0742953e+02 </wgt>
<wgt id='80'> +4.8089952e+02 </wgt>
<wgt id='81'> +4.9805742e+02 </wgt>
<wgt id='82'> +4.9202779e+02 </wgt>
<wgt id='83'> +5.1113178e+02 </wgt>
<wgt id='84'> +5.3709872e+02 </wgt>
<wgt id='85'> +5.0310769e+02 </wgt>
<wgt id='86'> +5.1394087e+02 </wgt>
<wgt id='87'> +5.0759189e+02 </wgt>
<wgt id='88'> +5.0625125e+02 </wgt>
<wgt id='89'> +4.9685575e+02 </wgt>
<wgt id='90'> +5.0719115e+02 </wgt>
<wgt id='91'> +5.0148670e+02 </wgt>
<wgt id='92'> +4.5485932e+02 </wgt>
<wgt id='93'> +5.0525423e+02 </wgt>
<wgt id='94'> +4.8150749e+02 </wgt>
<wgt id='95'> +5.0406079e+02 </wgt>
<wgt id='96'> +5.4363631e+02 </wgt>
<wgt id='97'> +4.8906627e+02 </wgt>
<wgt id='98'> +5.0352731e+02 </wgt>
<wgt id='99'> +4.6466989e+02 </wgt>
<wgt id='100'> +4.4615051e+02 </wgt>
<wgt id='101'> +5.7193777e+02 </wgt>
<wgt id='102'> +5.3558042e+02 </wgt>
<wgt id='103'> +5.3476304e+02 </wgt>
<wgt id='104'> +5.1888849e+02 </wgt>
<wgt id='105'> +5.1817163e+02 </wgt>
<wgt id='106'> +4.5935636e+02 </wgt>
<wgt id='107'> +4.7524959e+02 </wgt>
<wgt id='108'> +4.4482379e+02 </wgt>
<wgt id='109'> +4.7683197e+02 </wgt>
<wgt id='110'> +4.9109715e+02 </wgt>
<wgt id='111'> +4.8977864e+02 </wgt>
<wgt id='112'> +4.8542467e+02 </wgt>
<wgt id='113'> +4.7540273e+02 </wgt>
<wgt id='114'> +4.9658409e+02 </wgt>
<wgt id='115'> +4.7295123e+02 </wgt>
<wgt id='116'> +5.3483335e+02 </wgt>
<wgt id='117'> +4.9687393e+02 </wgt>
<wgt id='118'> +5.3325224e+02 </wgt>
<wgt id='119'> +5.0232628e+02 </wgt>
<wgt id='120'> +4.9673862e+02 </wgt>
<wgt id='121'> +4.9477118e+02 </wgt>
<wgt id='122'> +4.9768626e+02 </wgt>
<wgt id='123'> +5.0592120e+02 </wgt>
<wgt id='124'> +5.6861912e+02 </wgt>
<wgt id='125'> +5.8344163e+02 </wgt>
<wgt id='126'> +5.1777958e+02 </wgt>
<wgt id='127'> +5.1288107e+02 </wgt>
<wgt id='128'> +4.6161853e+02 </wgt>
<wgt id='129'> +5.5853014e+02 </wgt>
<wgt id='130'> +4.9873099e+02 </wgt>
<wgt id='131'> +5.1353350e+02 </wgt>
<wgt id='132'> +5.3737735e+02 </wgt>
<wgt id='133'> +5.2924322e+02 </wgt>
<wgt id='134'> +4.9826994e+02 </wgt>
<wgt id='135'> +5.0548836e+02 </wgt>
<wgt id='136'> +5.3863568e+02 </wgt>
<wgt id='137'> +4.9344669e+02 </wgt>
<wgt id='138'> +4.8833292e+02 </wgt>
<wgt id='139'> +5.2160682e+02 </wgt>
<wgt id='140'> +5.1214642e+02 </wgt>
<wgt id='141'> +5.2632947e+02 </wgt>
<wgt id='142'> +4.4825549e+02 </wgt>
<wgt id='143'> +5.1645224e+02 </wgt>
<wgt id='144'> +4.8323201e+02 </wgt>
<wgt id='145'> +4.9329751e+02 </wgt>
</rwgt>
</event>
<event>
 4      1 +5.0481800e+02 1.77508700e+02 7.54677100e-03 1.17023600e-01
       21 -1    0    0  501  502 +0.0000000000e+00 +0.0000000000e+00 +4.2072095626e+01 4.2072095626e+01 0.0000000000e+00 0.0000e+00 -1.0000e+00
       21 -1    0    0  502  503 -0.0000000000e+00 -0.0000000000e+00 -1.2321264434e+03 1.2321264434e+03 0.0000000000e+00 0.0000e+00 -1.0000e+00
        6  1    1    2  501    0 +3.1704480241e+01 +2.3982908354e+01 -1.9605910877e+02 2.6447784045e+02 1.7300000000e+02 0.0000e+00 -1.0000e+00
       -6  1    1    2    0  503 -3.1704480241e+01 -2.3982908354e+01 -9.9399523905e+02 1.0097206986e+03 1.7300000000e+02 0.0000e+00 -1.0000e+00
<mgrwt>
<rscale>  2 0.17750874E+03</rscale>
<asrwt>0</asrwt>
<pdfrwt beam="1">  1       21 0.64726313E-02 0.17750874E+03</pdfrwt>
<pdfrwt beam="2">  1       21 0.18955788E+00 0.17750874E+03</pdfrwt>
<totfact> 0.27479883E+04</totfact>
</mgrwt>
<rwgt>
<wgt id='1'> +6.7444388e+02 </wgt>
<wgt id='2'> +8.9946950e+02 </wgt>
<wgt id='3'> +5.0481800e+02 </wgt>
<wgt id='4'> +6.7444388e+02 </wgt>
<wgt id='5'> +4.5699027e+02 </wgt>
<wgt id='6'> +6.2185512e+02 </wgt>
<wgt id='7'> +8.3408186e+02 </wgt>
<wgt id='8'> +4.5802130e+02 </wgt>
<wgt id='9'> +6.2185511e+02 </wgt>
<wgt id='10'> +4.1457609e+02 </wgt>
<wgt id='11'> +5.6420906e+02 </wgt>
<wgt id='12'> +7.6836381e+02 </wgt>
<wgt id='13'> +4.1609864e+02 </wgt>
<wgt id='14'> +5.6420905e+02 </wgt>
<wgt id='15'> +3.7697415e+02 </wgt>
<wgt id='16'> +5.4750922e+02 </wgt>
<wgt id='17'> +7.1311938e+02 </wgt>
<wgt id='18'> +4.2395920e+02 </wgt>
<wgt id='19'> +5.4750922e+02 </wgt>
<wgt id='20'> +3.8609935e+02 </wgt>
<wgt id='21'> +6.6127860e+02 </wgt>
<wgt id='22'> +3.8465812e+02 </wgt>
<wgt id='23'> +5.0481800e+02 </wgt>
<wgt id='24'> +3.5026470e+02 </wgt>
<wgt id='25'> +4.5802130e+02 </wgt>
<wgt id='26'> +6.0917588e+02 </wgt>
<wgt id='27'> +3.4945039e+02 </wgt>
<wgt id='28'> +4.5802130e+02 </wgt>
<wgt id='29'> +3.1849579e+02 </wgt>
<wgt id='30'> +4.5981239e+02 </wgt>
<wgt id='31'> +5.8015391e+02 </wgt>
<wgt id='32'> +3.6129781e+02 </wgt>
<wgt id='33'> +4.5981239e+02 </wgt>
<wgt id='34'> +3.3050506e+02 </wgt>
<wgt id='35'> +4.2395920e+02 </wgt>
<wgt id='36'> +5.3797917e+02 </wgt>
<wgt id='37'> +3.2780545e+02 </wgt>
<wgt id='38'> +4.2395920e+02 </wgt>
<wgt id='39'> +2.9983023e+02 </wgt>
<wgt id='40'> +3.8465812e+02 </wgt>
<wgt id='41'> +4.9559131e+02 </wgt>
<wgt id='42'> +2.9780144e+02 </wgt>
<wgt id='43'> +3.8465812e+02 </wgt>
<wgt id='44'> +2.7263571e+02 </wgt>
<wgt id='45'> +5.0481800e+02 </wgt>
<wgt id='46'> +5.1863838e+02 </wgt>
<wgt id='47'> +5.2080987e+02 </wgt>
<wgt id='48'> +5.0356338e+02 </wgt>
<wgt id='49'> +4.6860462e+02 </wgt>
<wgt id='50'> +5.9037122e+02 </wgt>
<wgt id='51'> +4.7642485e+02 </wgt>
<wgt id='52'> +4.7616251e+02 </wgt>
<wgt id='53'> +5.0473212e+02 </wgt>
<wgt id='54'> +5.3459684e+02 </wgt>
<wgt id='55'> +5.5844831e+02 </wgt>
<wgt id='56'> +4.8122333e+02 </wgt>
<wgt id='57'> +5.3539736e+02 </wgt>
<wgt id='58'> +4.6191458e+02 </wgt>
<wgt id='59'> +5.4821733e+02 </wgt>
<wgt id='60'> +5.0675143e+02 </wgt>
<wgt id='61'> +4.4590318e+02 </wgt>
<wgt id='62'> +4.6818914e+02 </wgt>
<wgt id='63'> +5.3017385e+02 </wgt>
<wgt id='64'> +5.0556432e+02 </wgt>
<wgt id='65'> +4.7035175e+02 </wgt>
<wgt id='66'> +5.0912996e+02 </wgt>
<wgt id='67'> +5.0785258e+02 </wgt>
<wgt id='68'> +6.0559572e+02 </wgt>
<wgt id='69'> +5.3929037e+02 </wgt>
<wgt id='70'> +5.3819330e+02 </wgt>
<wgt id='71'> +4.7428555e+02 </wgt>
<wgt id='72'> +4.6773789e+02 </wgt>
<wgt id='73'> +4.6025341e+02 </wgt>
<wgt id='74'> +5.7362634e+02 </wgt>
<wgt id='75'> +5.4427817e+02 </wgt>
<wgt id='76'> +5.1825476e+02 </wgt>
<wgt id='77'> +4.8014754e+02 </wgt>
<wgt id='78'> +4.3968419e+02 </wgt>
<wgt id='79'> +5.3645391e+02 </wgt>
<wgt id='80'> +4.5249962e+02 </wgt>
<wgt id='81'> +5.1999510e+02 </wgt>
<wgt id='82'> +4.9340853e+02 </wgt>
<wgt id='83'> +4.9737934e+02 </wgt>
<wgt id='84'> +4.9692448e+02 </wgt>
<wgt id='85'> +4.6197753e+02 </wgt>
<wgt id='86'> +5.2675573e+02 </wgt>
<wgt id='87'> +4.9958272e+02 </wgt>
<wgt id='88'> +4.9187065e+02 </wgt>
<wgt id='89'> +4.3991924e+02 </wgt>
<wgt id='90'> +4.7662740e+02 </wgt>
<wgt id='91'> +4.4831251e+02 </wgt>
<wgt id='92'> +4.7391432e+02 </wgt>
<wgt id='93'> +5.0941785e+02 </wgt>
<wgt id='94'> +4.6629727e+02 </wgt>
<wgt id='95'> +5.2979929e+02 </wgt>
<wgt id='96'> +5.2779641e+02 </wgt>
<wgt id='97'> +4.6194825e+02 </wgt>
<wgt id='98'> +5.3718644e+02 </wgt>
<wgt id='99'> +4.3034336e+02 </wgt>
<wgt id='100'> +3.9514618e+02 </wgt>
<wgt id='101'> +5.8528027e+02 </wgt>
<wgt id='102'> +5.6277146e+02 </wgt>
<wgt id='103'> +4.8894567e+02 </wgt>
<wgt id='104'> +5.3593807e+02 </wgt>
<wgt id='105'> +5.1821256e+02 </wgt>
<wgt id='106'> +4.8885338e+02 </wgt>
<wgt id='107'> +4.8733520e+02 </wgt>
<wgt id='108'> +4.7040128e+02 </wgt>
<wgt id='109'> +4.9838573e+02 </wgt>
<wgt id='110'> +4.6915361e+02 </wgt>
<wgt id='111'> +4.9135368e+02 </wgt>
<wgt id='112'> +5.2200043e+02 </wgt>
<wgt id='113'> +5.2392308e+02 </wgt>
<wgt id='114'> +5.2241009e+02 </wgt>
<wgt id='115'> +4.6284792e+02 </wgt>
<wgt id='116'> +5.5002803e+02 </wgt>
<wgt id='117'> +4.9365958e+02 </wgt>
<wgt id='118'> +5.2123651e+02 </wgt>
<wgt id='119'> +5.4831446e+02 </wgt>
<wgt id='120'> +5.0445420e+02 </wgt>
<wgt id='121'> +4.9909950e+02 </wgt>
<wgt id='122'> +4.9505222e+02 </wgt>
<wgt id='123'> +4.8395043e+02 </wgt>
<wgt id='124'> +5.6856936e+02 </wgt>
<wgt id='125'> +6.2518416e+02 </wgt>
<wgt id='126'> +4.9618233e+02 </wgt>
<wgt id='127'> +4.8660461e+02 </wgt>
<wgt id='128'> +4.8278685e+02 </wgt>
<wgt id='129'> +5.2047358e+02 </wgt>
<wgt id='130'> +4.8833999e+02 </wgt>
<wgt id='131'> +4.7064298e+02 </wgt>
<wgt id='132'> +5.5312192e+02 </wgt>
<wgt id='133'> +5.4776219e+02 </wgt>
<wgt id='134'> +5.2758500e+02 </wgt>
<wgt id='135'> +4.8565461e+02 </wgt>
<wgt id='136'> +5.9051597e+02 </wgt>
<wgt id='137'> +5.2263977e+02 </wgt>
<wgt id='138'> +5.1032811e+02 </wgt>
<wgt id='139'> +5.2059762e+02 </wgt>
<wgt id='140'> +4.9443420e+02 </wgt>
<wgt id='141'> +5.6535809e+02 </wgt>
<wgt id='142'> +3.6839638e+02 </wgt>
<wgt id='143'> +5.1879621e+02 </wgt>
<wgt id='144'> +4.6339464e+02 </wgt>
<wgt id='145'> +4.6775196e+02 </wgt>
</rwgt>
</event>
<event>
 4      1 +5.0481800e+02 2.33618900e+02 7.54677100e-03 1.12411800e-01
       21 -1    0    0  501  502 +0.0000000000e+00 +0.0000000000e+00 +7.0265069810e+01 7.0265069810e+01 0.0000000000e+00 0.0000e+00 1.0000e+00
       21 -1    0    0  502  503 -0.0000000000e+00 -0.0000000000e+00 -9.2303903504e+02 9.2303903504e+02 0.0000000000e+00 0.0000e+00 1.0000e+00
        6  1    1    2  501    0 -1.5041609667e+02 -4.4986677995e+01 -2.2866245605e+02 3.2690108924e+02 1.7300000000e+02 0.0000e+00 1.0000e+00
       -6  1    1    2    0  503 +1.5041609667e+02 +4.4986677995e+01 -6.2411150918e+02 6.6640301562e+02 1.7300000000e+02 0.0000e+00 1.0000e+00
<mgrwt>
<rscale>  2 0.23361893E+03</rscale>
<asrwt>0</asrwt>
<pdfrwt beam="1">  1       21 0.10810010E-01 0.23361893E+03</pdfrwt>
<pdfrwt beam="2">  1       21 0.14200601E+00 0.23361893E+03</pdfrwt>
<totfact> 0.23781108E+04</totfact>
</mgrwt>
<rwgt>
<wgt id='1'> +6.6348465e+02 </wgt>
<wgt id='2'> +5.6605322e+02 </wgt>
<wgt id='3'> +5.0481800e+02 </wgt>
<wgt id='4'> +6.6348465e+02 </wgt>
<wgt id='5'> +4.8850754e+02 </wgt>
<wgt id='6'> +6.1300972e+02 </wgt>
<wgt id='7'> +5.1813466e+02 </wgt>
<wgt id='8'> +4.6184732e+02 </wgt>
<wgt id='9'> +6.1300972e+02 </wgt>
<wgt id='10'> +4.4699954e+02 </wgt>
<wgt id='11'> +5.6082963e+02 </wgt>
<wgt id='12'> +4.7444838e+02 </wgt>
<wgt id='13'> +4.2324997e+02 </wgt>
<wgt id='14'> +5.6082963e+02 </wgt>
<wgt id='15'> +4.0974890e+02 </wgt>
<wgt id='16'> +5.4638447e+02 </wgt>
<wgt id='17'> +4.7504989e+02 </wgt>
<wgt id='18'> +4.2672729e+02 </wgt>
<wgt id='19'> +5.4638447e+02 </wgt>
<wgt id='20'> +4.1365800e+02 </wgt>
<wgt id='21'> +4.3483511e+02 </wgt>
<wgt id='22'> +3.9040378e+02 </wgt>
<wgt id='23'> +5.0481800e+02 </wgt>
<wgt id='24'> +3.7850989e+02 </wgt>
<wgt id='25'> +4.6184731e+02 </wgt>
<wgt id='26'> +3.9817219e+02 </wgt>
<wgt id='27'> +3.5777709e+02 </wgt>
<wgt id='28'> +4.6184732e+02 </wgt>
<wgt id='29'> +3.4696682e+02 </wgt>
<wgt id='30'> +4.6186381e+02 </wgt>
<wgt id='31'> +4.0467938e+02 </wgt>
<wgt id='32'> +3.6544644e+02 </wgt>
<wgt id='33'> +4.6186381e+02 </wgt>
<wgt id='34'> +3.5478153e+02 </wgt>
<wgt id='35'> +4.2672729e+02 </wgt>
<wgt id='36'> +3.7042172e+02 </wgt>
<wgt id='37'> +3.3433922e+02 </wgt>
<wgt id='38'> +4.2672729e+02 </wgt>
<wgt id='39'> +3.2463610e+02 </wgt>
<wgt id='40'> +3.9040378e+02 </wgt>
<wgt id='41'> +3.3918979e+02 </wgt>
<wgt id='42'> +3.0639794e+02 </wgt>
<wgt id='43'> +3.9040378e+02 </wgt>
<wgt id='44'> +2.9758260e+02 </wgt>
<wgt id='45'> +5.0481800e+02 </wgt>
<wgt id='46'> +5.1883104e+02 </wgt>
<wgt id='47'> +5.1896606e+02 </wgt>
<wgt id='48'> +5.0643880e+02 </wgt>
<wgt id='49'> +4.8336941e+02 </wgt>
<wgt id='50'> +5.9960476e+02 </wgt>
<wgt id='51'> +4.8489109e+02 </wgt>
<wgt id='52'> +4.9366891e+02 </wgt>
<wgt id='53'> +4.9885789e+02 </wgt>
<wgt id='54'> +5.2375137e+02 </wgt>
<wgt id='55'> +5.1464907e+02 </wgt>
<wgt id='56'> +4.6774650e+02 </wgt>
<wgt id='57'> +5.2197208e+02 </wgt>
<wgt id='58'> +4.7775665e+02 </wgt>
<wgt id='59'> +5.3820416e+02 </wgt>
<wgt id='60'> +5.0713235e+02 </wgt>
<wgt id='61'> +4.4466447e+02 </wgt>
<wgt id='62'> +4.8367680e+02 </wgt>
<wgt id='63'> +5.1678539e+02 </wgt>
<wgt id='64'> +4.9966756e+02 </wgt>
<wgt id='65'> +5.1968502e+02 </wgt>
<wgt id='66'> +5.0177093e+02 </wgt>
<wgt id='67'> +5.0701351e+02 </wgt>
<wgt id='68'> +5.7669087e+02 </wgt>
<wgt id='69'> +5.1997759e+02 </wgt>
<wgt id='70'> +5.1277917e+02 </wgt>
<wgt id='71'> +4.9486453e+02 </wgt>
<wgt id='72'> +4.7865015e+02 </wgt>
<wgt id='73'> +4.7409328e+02 </wgt>
<wgt id='74'> +5.5060100e+02 </wgt>
<wgt id='75'> +5.2581194e+02 </wgt>
<wgt id='76'> +5.0877197e+02 </wgt>
<wgt id='77'> +4.9067355e+02 </wgt>
<wgt id='78'> +4.6149765e+02 </wgt>
<wgt id='79'> +5.1536918e+02 </wgt>
<wgt id='80'> +4.7393208e+02 </wgt>
<wgt id='81'> +5.0443229e+02 </wgt>
<wgt id='82'> +4.8876798e+02 </wgt>
<wgt id='83'> +5.0428797e+02 </wgt>
<wgt id='84'> +5.2169850e+02 </wgt>
<wgt id='85'> +4.8926985e+02 </wgt>
<wgt id='86'> +5.1537827e+02 </wgt>
<wgt id='87'> +5.0541293e+02 </wgt>
<wgt id='88'> +4.9937812e+02 </wgt>
<wgt id='89'> +4.8131679e+02 </wgt>
<wgt id='90'> +5.0006271e+02 </wgt>
<wgt id='91'> +4.8521307e+02 </wgt>
<wgt id='92'> +4.6615392e+02 </wgt>
<wgt id='93'> +5.0558314e+02 </wgt>
<wgt id='94'> +4.7805622e+02 </wgt>
<wgt id='95'> +5.1567866e+02 </wgt>
<wgt id='96'> +5.3291702e+02 </wgt>
<wgt id='97'> +4.8179151e+02 </wgt>
<wgt id='98'> +5.1278096e+02 </wgt>
<wgt id='99'> +4.5621619e+02 </wgt>
<wgt id='100'> +4.3387428e+02 </wgt>
<wgt id='101'> +5.7300334e+02 </wgt>
<wgt id='102'> +5.4231039e+02 </wgt>
<wgt id='103'> +5.1936456e+02 </wgt>
<wgt id='104'> +5.2165036e+02 </wgt>
<wgt id='105'> +5.1957190e+02 </wgt>
<wgt id='106'> +4.7206150e+02 </wgt>
<wgt id='107'> +4.7982175e+02 </wgt>
<wgt id='108'> +4.5624026e+02 </wgt>
<wgt id='109'> +4.8670864e+02 </wgt>
<wgt id='110'> +4.8646849e+02 </wgt>
<wgt id='111'> +4.9256229e+02 </wgt>
<wgt id='112'> +4.9780573e+02 </wgt>
<wgt id='113'> +4.9072391e+02 </wgt>
<wgt id='114'> +5.0639866e+02 </wgt>
<wgt id='115'> +4.6968693e+02 </wgt>
<wgt id='116'> +5.3658128e+02 </wgt>
<wgt id='117'> +4.9484017e+02 </wgt>
<wgt id='118'> +5.2811857e+02 </wgt>
<wgt id='119'> +5.1695257e+02 </wgt>
<wgt id='120'> +5.0002373e+02 </wgt>
<wgt id='121'> +5.0003870e+02 </wgt>
<wgt id='122'> +4.9822979e+02 </wgt>
<wgt id='123'> +4.9865203e+02 </wgt>
<wgt id='124'> +5.6596968e+02 </wgt>
<wgt id='125'> +5.9101540e+02 </wgt>
<wgt id='126'> +5.0900672e+02 </wgt>
<wgt id='127'> +5.0429182e+02 </wgt>
<wgt id='128'> +4.6799221e+02 </wgt>
<wgt id='129'> +5.4516710e+02 </wgt>
<wgt id='130'> +4.9050950e+02 </wgt>
<wgt id='131'> +4.9976006e+02 </wgt>
<wgt id='132'> +5.4472663e+02 </wgt>
<wgt id='133'> +5.3346380e+02 </wgt>
<wgt id='134'> +5.0857680e+02 </wgt>
<wgt id='135'> +4.9921588e+02 </wgt>
<wgt id='136'> +5.5678170e+02 </wgt>
<wgt id='137'> +5.0003370e+02 </wgt>
<wgt id='138'> +4.9262900e+02 </wgt>
<wgt id='139'> +5.2035656e+02 </wgt>
<wgt id='140'> +5.0562408e+02 </wgt>
<wgt id='141'> +5.3518514e+02 </wgt>
<wgt id='142'> +4.2752474e+02 </wgt>
<wgt id='143'> +5.1871438e+02 </wgt>
<wgt id='144'> +4.7949101e+02 </wgt>
<wgt id='145'> +4.8579007e+02 </wgt>
</rwgt>
</event>
<event>
 4      1 +5.0481800e+02 2.38782200e+02 7.54677100e-03 1.12060700e-01
       21 -1    0    0  501  502 +0.0000000000e+00 +0.0000000000e+00 +8.0523719696e+01 8.0523719696e+01 0.0000000000e+00 0.0000e+00 -1.0000e+00
       21 -1    0    0  502  503 -0.0000000000e+00 -0.0000000000e+00 -1.0791938428e+03 1.0791938428e+03 0.0000000000e+00 0.0000e+00 -1.0000e+00
        6  1    1    2  501    0 +9.7011977124e+00 -1.6429800974e+02 -1.5929650363e+02 2.8704063355e+02 1.7300000000e+02 0.0000e+00 -1.0000e+00
       -6  1    1    2    0  503 -9.7011977124e+00 +1.6429800974e+02 -8.3937361945e+02 8.7267692892e+02 1.7300000000e+02 0.0000e+00 -1.0000e+00
<mgrwt>
<rscale>  2 0.23878222E+03</rscale>
<asrwt>0</asrwt>
<pdfrwt beam="1">  1       21 0.12388265E-01 0.23878222E+03</pdfrwt>
<pdfrwt beam="2">  1       21 0.16602982E+00 0.23878222E+03</pdfrwt>
<totfact> 0.12216791E+04</totfact>
</mgrwt>
<rwgt>
<wgt id='1'> +6.7373141e+02 </wgt>
<wgt id='2'> +5.5759892e+02 </wgt>
<wgt id='3'> +5.0481800e+02 </wgt>
<wgt id='4'> +6.7373141e+02 </wgt>
<wgt id='5'> +4.6409354e+02 </wgt>
<wgt id='6'> +6.1231334e+02 </wgt>
<wgt id='7'> +5.0257323e+02 </wgt>
<wgt id='8'> +4.5532292e+02 </wgt>
<wgt id='9'> +6.1231334e+02 </wgt>
<wgt id='10'> +4.1895705e+02 </wgt>
<wgt id='11'> +5.5227884e+02 </wgt>
<wgt id='12'> +4.5417279e+02 </wgt>
<wgt id='13'> +4.1194145e+02 </wgt>
<wgt id='14'> +5.5227883e+02 </wgt>
<wgt id='15'> +3.7942699e+02 </wgt>
<wgt id='16'> +5.5545375e+02 </wgt>
<wgt id='17'> +4.6905002e+02 </wgt>
<wgt id='18'> +4.2691795e+02 </wgt>
<wgt id='19'> +5.5545375e+02 </wgt>
<wgt id='20'> +3.9411587e+02 </wgt>
<wgt id='21'> +4.2276264e+02 </wgt>
<wgt id='22'> +3.8506061e+02 </wgt>
<wgt id='23'> +5.0481800e+02 </wgt>
<wgt id='24'> +3.5578522e+02 </wgt>
<wgt id='25'> +4.5532292e+02 </wgt>
<wgt id='26'> +3.8204838e+02 </wgt>
<wgt id='27'> +3.4837347e+02 </wgt>
<wgt id='28'> +4.5532292e+02 </wgt>
<wgt id='29'> +3.2221564e+02 </wgt>
<wgt id='30'> +4.6973994e+02 </wgt>
<wgt id='31'> +4.0010781e+02 </wgt>
<wgt id='32'> +3.6574824e+02 </wgt>
<wgt id='33'> +4.6973994e+02 </wgt>
<wgt id='34'> +3.3884868e+02 </wgt>
<wgt id='35'> +4.2691795e+02 </wgt>
<wgt id='36'> +3.6062387e+02 </wgt>
<wgt id='37'> +3.2988831e+02 </wgt>
<wgt id='38'> +4.2691795e+02 </wgt>
<wgt id='39'> +3.0589317e+02 </wgt>
<wgt id='40'> +3.8506061e+02 </wgt>
<wgt id='41'> +3.2589390e+02 </wgt>
<wgt id='42'> +2.9845778e+02 </wgt>
<wgt id='43'> +3.8506061e+02 </wgt>
<wgt id='44'> +2.7703108e+02 </wgt>
<wgt id='45'> +5.0481800e+02 </wgt>
<wgt id='46'> +5.1978145e+02 </wgt>
<wgt id='47'> +5.2192391e+02 </wgt>
<wgt id='48'> +5.0589151e+02 </wgt>
<wgt id='49'> +4.7529199e+02 </wgt>
<wgt id='50'> +6.0345792e+02 </wgt>
<wgt id='51'> +4.8021146e+02 </wgt>
<wgt id='52'> +4.8466771e+02 </wgt>
<wgt id='53'> +5.0215515e+02 </wgt>
<wgt id='54'> +5.2954978e+02 </wgt>
<wgt id='55'> +5.3275470e+02 </wgt>
<wgt id='56'> +4.7178706e+02 </wgt>
<wgt id='57'> +5.2787061e+02 </wgt>
<wgt id='58'> +4.6759296e+02 </wgt>
<wgt id='59'> +5.4300464e+02 </wgt>
<wgt id='60'> +5.0459301e+02 </wgt>
<wgt id='61'> +4.5092151e+02 </wgt>
<wgt id='62'> +4.7584731e+02 </wgt>
<wgt id='63'> +5.2325564e+02 </wgt>
<wgt id='64'> +5.0128363e+02 </wgt>
<wgt id='65'> +5.0068242e+02 </wgt>
<wgt id='66'> +5.0545011e+02 </wgt>
<wgt id='67'> +5.0742830e+02 </wgt>
<wgt id='68'> +5.9299496e+02 </wgt>
<wgt id='69'> +5.3214780e+02 </wgt>
<wgt id='70'> +5.2423960e+02 </wgt>
<wgt id='71'> +4.8512901e+02 </wgt>
<wgt id='72'> +4.6985719e+02 </wgt>
<wgt id='73'> +4.6515967e+02 </wgt>
<wgt id='74'> +5.6330767e+02 </wgt>
<wgt id='75'> +5.3560402e+02 </wgt>
<wgt id='76'> +5.1268311e+02 </wgt>
<wgt id='77'> +4.8486895e+02 </wgt>
<wgt id='78'> +4.4979162e+02 </wgt>
<wgt id='79'> +5.2461840e+02 </wgt>
<wgt id='80'> +4.6267851e+02 </wgt>
<wgt id='81'> +5.1091291e+02 </wgt>
<wgt id='82'> +4.9051967e+02 </wgt>
<wgt id='83'> +5.0293020e+02 </wgt>
<wgt id='84'> +5.1295678e+02 </wgt>
<wgt id='85'> +4.7640609e+02 </wgt>
<wgt id='86'> +5.2176346e+02 </wgt>
<wgt id='87'> +5.0259814e+02 </wgt>
<wgt id='88'> +4.9755014e+02 </wgt>
<wgt id='89'> +4.6085417e+02 </wgt>
<wgt id='90'> +4.8830121e+02 </wgt>
<wgt id='91'> +4.6758306e+02 </wgt>
<wgt id='92'> +4.6588442e+02 </wgt>
<wgt id='93'> +5.0729884e+02 </wgt>
<wgt id='94'> +4.7081875e+02 </wgt>
<wgt id='95'> +5.2137666e+02 </wgt>
<wgt id='96'> +5.3366795e+02 </wgt>
<wgt id='97'> +4.7174942e+02 </wgt>
<wgt id='98'> +5.2447524e+02 </wgt>
<wgt id='99'> +4.4161321e+02 </wgt>
<wgt id='100'> +4.1198391e+02 </wgt>
<wgt id='101'> +5.8208711e+02 </wgt>
<wgt id='102'> +5.5413978e+02 </wgt>
<wgt id='103'> +5.0593969e+02 </wgt>
<wgt id='104'> +5.3066445e+02 </wgt>
<wgt id='105'> +5.1840275e+02 </wgt>
<wgt id='106'> +4.7667335e+02 </wgt>
<wgt id='107'> +4.8088325e+02 </wgt>
<wgt id='108'> +4.6009708e+02 </wgt>
<wgt id='109'> +4.9022904e+02 </wgt>
<wgt id='110'> +4.7652881e+02 </wgt>
<wgt id='111'> +4.9141418e+02 </wgt>
<wgt id='112'> +5.0866493e+02 </wgt>
<wgt id='113'> +5.0401819e+02 </wgt>
<wgt id='114'> +5.1297636e+02 </wgt>
<wgt id='115'> +4.6693866e+02 </wgt>
<wgt id='116'> +5.4549950e+02 </wgt>
<wgt id='117'> +4.9458646e+02 </wgt>
<wgt id='118'> +5.2659696e+02 </wgt>
<wgt id='119'> +5.3050575e+02 </wgt>
<wgt id='120'> +5.0323641e+02 </wgt>
<wgt id='121'> +4.9819495e+02 </wgt>
<wgt id='122'> +4.9612248e+02 </wgt>
<wgt id='123'> +4.9297461e+02 </wgt>
<wgt id='124'> +5.7053562e+02 </wgt>
<wgt id='125'> +6.1074102e+02 </wgt>
<wgt id='126'> +5.0381072e+02 </wgt>
<wgt id='127'> +4.9629304e+02 </wgt>
<wgt id='128'> +4.7476195e+02 </wgt>
<wgt id='129'> +5.3526418e+02 </wgt>
<wgt id='130'> +4.8960925e+02 </wgt>
<wgt id='131'> +4.8588608e+02 </wgt>
<wgt id='132'> +5.4836620e+02 </wgt>
<wgt id='133'> +5.4142560e+02 </wgt>
<wgt id='134'> +5.1647418e+02 </wgt>
<wgt id='135'> +4.9246742e+02 </wgt>
<wgt id='136'> +5.7264269e+02 </wgt>
<wgt id='137'> +5.1130048e+02 </wgt>
<wgt id='138'> +5.0329643e+02 </wgt>
<wgt id='139'> +5.2056523e+02 </wgt>
<wgt id='140'> +5.0027177e+02 </wgt>
<wgt id='141'> +5.5103397e+02 </wgt>
<wgt id='142'> +3.9694931e+02 </wgt>
<wgt id='143'> +5.1811088e+02 </wgt>
<wgt id='144'> +4.6970837e+02 </wgt>
<wgt id='145'> +4.7706672e+02 </wgt>
</rwgt>
</event>
<event>
 4      1 +5.0481800e+02 1.81671500e+02 7.54677100e-03 1.16619500e-01
       21 -1    0    0  503  502 +0.0000000000e+00 +0.0000000000e+00 +9.9101812023e+02 9.9101812023e+02 0.0000000000e+00 0.0000e+00 -1.0000e+00
       21 -1    0    0  501  503 -0.0000000000e+00 -0.0000000000e+00 -3.2943713833e+02 3.2943713833e+02 0.0000000000e+00 0.0000e+00 -1.0000e+00
        6  1    1    2  501    0 +5.4662553105e+01 -9.3570537352e+00 -2.9517610261e+02 3.4660277079e+02 1.7300000000e+02 0.0000e+00 -1.0000e+00
       -6  1    1    2    0  502 -5.4662553105e+01 +9.3570537352e+00 +9.5675708451e+02 9.7385248776e+02 1.7300000000e+02 0.0000e+00 -1.0000e+00
<mgrwt>
<rscale>  2 0.18167154E+03</rscale>
<asrwt>0</asrwt>
<pdfrwt beam="1">  1       21 0.15246432E+00 0.18167154E+03</pdfrwt>
<pdfrwt beam="2">  1       21 0.50682637E-01 0.18167154E+03</pdfrwt>
<totfact> 0.10731042E+03</totfact>
</mgrwt>
<rwgt>
<wgt id='1'> +7.0859608e+02 </wgt>
<wgt id='2'> +8.7823589e+02 </wgt>
<wgt id='3'> +5.0481800e+02 </wgt>
<wgt id='4'> +7.0859608e+02 </wgt>
<wgt id='5'> +3.0333418e+02 </wgt>
<wgt id='6'> +6.2114060e+02 </wgt>
<wgt id='7'> +7.6892044e+02 </wgt>
<wgt id='8'> +4.3836317e+02 </wgt>
<wgt id='9'> +6.2114060e+02 </wgt>
<wgt id='10'> +2.6624313e+02 </wgt>
<wgt id='11'> +5.3937293e+02 </wgt>
<wgt id='12'> +6.7107547e+02 </wgt>
<wgt id='13'> +3.8309152e+02 </wgt>
<wgt id='14'> +5.3937293e+02 </wgt>
<wgt id='15'> +2.3518462e+02 </wgt>
<wgt id='16'> +5.7589547e+02 </wgt>
<wgt id='17'> +7.0298820e+02 </wgt>
<wgt id='18'> +4.2427350e+02 </wgt>
<wgt id='19'> +5.7589547e+02 </wgt>
<wgt id='20'> +2.6066171e+02 </wgt>
<wgt id='21'> +6.1548611e+02 </wgt>
<wgt id='22'> +3.6842165e+02 </wgt>
<wgt id='23'> +5.0481800e+02 </wgt>
<wgt id='24'> +2.2878856e+02 </wgt>
<wgt id='25'> +4.3836317e+02 </wgt>
<wgt id='26'> +5.3716563e+02 </wgt>
<wgt id='27'> +3.2196867e+02 </wgt>
<wgt id='28'> +4.3836317e+02 </wgt>
<wgt id='29'> +2.0209930e+02 </wgt>
<wgt id='30'> +4.8401046e+02 </wgt>
<wgt id='31'> +5.7981557e+02 </wgt>
<wgt id='32'> +3.6171914e+02 </wgt>
<wgt id='33'> +4.8401045e+02 </wgt>
<wgt id='34'> +2.2639944e+02 </wgt>
<wgt id='35'> +4.2427351e+02 </wgt>
<wgt id='36'> +5.0764499e+02 </wgt>
<wgt id='37'> +3.1410201e+02 </wgt>
<wgt id='38'> +4.2427350e+02 </wgt>
<wgt id='39'> +1.9871581e+02 </wgt>
<wgt id='40'> +3.6842165e+02 </wgt>
<wgt id='41'> +4.4304726e+02 </wgt>
<wgt id='42'> +2.7449801e+02 </wgt>
<wgt id='43'> +3.6842165e+02 </wgt>
<wgt id='44'> +1.7553467e+02 </wgt>
<wgt id='45'> +5.0481800e+02 </wgt>
<wgt id='46'> +5.3207866e+02 </wgt>
<wgt id='47'> +5.3037292e+02 </wgt>
<wgt id='48'> +5.1501870e+02 </wgt>
<wgt id='49'> +4.8015819e+02 </wgt>
<wgt id='50'> +6.5488130e+02 </wgt>
<wgt id='51'> +4.8213116e+02 </wgt>
<wgt id='52'> +4.9385788e+02 </wgt>
<wgt id='53'> +4.9187160e+02 </wgt>
<wgt id='54'> +5.2636719e+02 </wgt>
<wgt id='55'> +5.0505289e+02 </wgt>
<wgt id='56'> +4.5014562e+02 </wgt>
<wgt id='57'> +5.1988094e+02 </wgt>
<wgt id='58'> +4.6333601e+02 </wgt>
<wgt id='59'> +5.5085826e+02 </wgt>
<wgt id='60'> +5.1322719e+02 </wgt>
<wgt id='61'> +4.2904926e+02 </wgt>
<wgt id='62'> +4.8333710e+02 </wgt>
<wgt id='63'> +5.1866593e+02 </wgt>
<wgt id='64'> +4.8836167e+02 </wgt>
<wgt id='65'> +5.2979759e+02 </wgt>
<wgt id='66'> +5.0314022e+02 </wgt>
<wgt id='67'> +5.0733601e+02 </wgt>
<wgt id='68'> +6.0140924e+02 </wgt>
<wgt id='69'> +5.3984059e+02 </wgt>
<wgt id='70'> +5.1029722e+02 </wgt>
<wgt id='71'> +4.9225257e+02 </wgt>
<wgt id='72'> +4.5028656e+02 </wgt>
<wgt id='73'> +4.6423764e+02 </wgt>
<wgt id='74'> +5.7092694e+02 </wgt>
<wgt id='75'> +5.3407705e+02 </wgt>
<wgt id='76'> +5.0305067e+02 </wgt>
<wgt id='77'> +4.9375704e+02 </wgt>
<wgt id='78'> +4.4609509e+02 </wgt>
<wgt id='79'> +5.2156793e+02 </wgt>
<wgt id='80'> +4.6521305e+02 </wgt>
<wgt id='81'> +4.9857221e+02 </wgt>
<wgt id='82'> +4.8466991e+02 </wgt>
<wgt id='83'> +5.1373866e+02 </wgt>
<wgt id='84'> +5.3526904e+02 </wgt>
<wgt id='85'> +4.9106078e+02 </wgt>
<wgt id='86'> +5.2544449e+02 </wgt>
<wgt id='87'> +5.0944654e+02 </wgt>
<wgt id='88'> +5.0477024e+02 </wgt>
<wgt id='89'> +4.8361525e+02 </wgt>
<wgt id='90'> +5.0128956e+02 </wgt>
<wgt id='91'> +4.8149627e+02 </wgt>
<wgt id='92'> +4.3491381e+02 </wgt>
<wgt id='93'> +5.1196514e+02 </wgt>
<wgt id='94'> +4.6639193e+02 </wgt>
<wgt id='95'> +5.0694861e+02 </wgt>
<wgt id='96'> +5.5867999e+02 </wgt>
<wgt id='97'> +4.7317343e+02 </wgt>
<wgt id='98'> +5.1433625e+02 </wgt>
<wgt id='99'> +4.4502720e+02 </wgt>
<wgt id='100'> +4.0783167e+02 </wgt>
<wgt id='101'> +6.0784742e+02 </wgt>
<wgt id='102'> +5.6747320e+02 </wgt>
<wgt id='103'> +5.3325024e+02 </wgt>
<wgt id='104'> +5.3211074e+02 </wgt>
<wgt id='105'> +5.1213736e+02 </wgt>
<wgt id='106'> +4.4514922e+02 </wgt>
<wgt id='107'> +4.5806107e+02 </wgt>
<wgt id='108'> +4.2918291e+02 </wgt>
<wgt id='109'> +4.6964050e+02 </wgt>
<wgt id='110'> +4.7929818e+02 </wgt>
<wgt id='111'> +4.8274830e+02 </wgt>
<wgt id='112'> +4.8603948e+02 </wgt>
<wgt id='113'> +4.7616508e+02 </wgt>
<wgt id='114'> +4.8818664e+02 </wgt>
<wgt id='115'> +4.5087801e+02 </wgt>
<wgt id='116'> +5.6037031e+02 </wgt>
<wgt id='117'> +4.8933381e+02 </wgt>
<wgt id='118'> +5.4805951e+02 </wgt>
<wgt id='119'> +5.1028736e+02 </wgt>
<wgt id='120'> +4.9041403e+02 </wgt>
<wgt id='121'> +4.9015013e+02 </wgt>
<wgt id='122'> +4.9397714e+02 </wgt>
<wgt id='123'> +5.0427578e+02 </wgt>
<wgt id='124'> +5.9672149e+02 </wgt>
<wgt id='125'> +6.2396864e+02 </wgt>
<wgt id='126'> +5.1907948e+02 </wgt>
<wgt id='127'> +5.1135187e+02 </wgt>
<wgt id='128'> +4.5463218e+02 </wgt>
<wgt id='129'> +5.5897190e+02 </wgt>
<wgt id='130'> +4.9564178e+02 </wgt>
<wgt id='131'> +5.0032219e+02 </wgt>
<wgt id='132'> +5.5684259e+02 </wgt>
<wgt id='133'> +5.5014728e+02 </wgt>
<wgt id='134'> +5.0697046e+02 </wgt>
<wgt id='135'> +4.9932760e+02 </wgt>
<wgt id='136'> +5.6730831e+02 </wgt>
<wgt id='137'> +5.0447754e+02 </wgt>
<wgt id='138'> +5.0761313e+02 </wgt>
<wgt id='139'> +5.2904938e+02 </wgt>
<wgt id='140'> +5.0164240e+02 </wgt>
<wgt id='141'> +5.4410393e+02 </wgt>
<wgt id='142'> +4.0503182e+02 </wgt>
<wgt id='143'> +5.2320973e+02 </wgt>
<wgt id='144'> +4.6613268e+02 </wgt>
<wgt id='145'> +4.8344980e+02 </wgt>
</rwgt>
</event>
<event>
 4      1 +5.0481800e+02 2.47504600e+02 7.54677100e-03 1.11489200e-01
       21 -1    0    0  503  502 +0.0000000000e+00 +0.0000000000e+00 +2.5672639404e+02 2.5672639404e+02 0.0000000000e+00 0.0000e+00 1.0000e+00
       21 -1    0    0  501  503 -0.0000000000e+00 -0.0000000000e+00 -2.4227124267e+02 2.4227124267e+02 0.0000000000e+00 0.0000e+00 -1.0000e+00
        6  1    1    2  501    0 +1.7137978779e+02 +4.4254912922e+01 -2.3426658603e+01 2.4861081496e+02 1.7300000000e+02 0.0000e+00 -1.0000e+00
       -6  1    1    2    0  502 -1.7137978779e+02 -4.4254912922e+01 +3.7881809973e+01 2.5038682176e+02 1.7300000000e+02 0.0000e+00 -1.0000e+00
<mgrwt>
<rscale>  2 0.24750460E+03</rscale>
<asrwt>0</asrwt>
<pdfrwt beam="1">  1       21 0.39496369E-01 0.24750460E+03</pdfrwt>
<pdfrwt beam="2">  1       21 0.37272499E-01 0.24750460E+03</pdfrwt>
<totfact> 0.41818809E+04</totfact>
</mgrwt>
<rwgt>
<wgt id='1'> +6.5002510e+02 </wgt>
<wgt id='2'> +5.0616099e+02 </wgt>
<wgt id='3'> +5.0481800e+02 </wgt>
<wgt id='4'> +6.5002510e+02 </wgt>
<wgt id='5'> +5.0346324e+02 </wgt>
<wgt id='6'> +6.1117964e+02 </wgt>
<wgt id='7'> +4.7149306e+02 </wgt>
<wgt id='8'> +4.7024320e+02 </wgt>
<wgt id='9'> +6.1117964e+02 </wgt>
<wgt id='10'> +4.6898245e+02 </wgt>
<wgt id='11'> +5.6932017e+02 </wgt>
<wgt id='12'> +4.3947125e+02 </wgt>
<wgt id='13'> +4.3831081e+02 </wgt>
<wgt id='14'> +5.6932017e+02 </wgt>
<wgt id='15'> +4.3714029e+02 </wgt>
<wgt id='16'> +5.3690331e+02 </wgt>
<wgt id='17'> +4.2829868e+02 </wgt>
<wgt id='18'> +4.2722643e+02 </wgt>
<wgt id='19'> +5.3690331e+02 </wgt>
<wgt id='20'> +4.2614455e+02 </wgt>
<wgt id='21'> +3.9896368e+02 </wgt>
<wgt id='22'> +3.9796585e+02 </wgt>
<wgt id='23'> +5.0481800e+02 </wgt>
<wgt id='24'> +3.9695910e+02 </wgt>
<wgt id='25'> +4.7024320e+02 </wgt>
<wgt id='26'> +3.7186776e+02 </wgt>
<wgt id='27'> +3.7094154e+02 </wgt>
<wgt id='28'> +4.7024320e+02 </wgt>
<wgt id='29'> +3.7000705e+02 </wgt>
<wgt id='30'> +4.5438017e+02 </wgt>
<wgt id='31'> +3.6711113e+02 </wgt>
<wgt id='32'> +3.6623957e+02 </wgt>
<wgt id='33'> +4.5438017e+02 </wgt>
<wgt id='34'> +3.6535997e+02 </wgt>
<wgt id='35'> +4.2722643e+02 </wgt>
<wgt id='36'> +3.4196698e+02 </wgt>
<wgt id='37'> +3.4115596e+02 </wgt>
<wgt id='38'> +4.2722643e+02 </wgt>
<wgt id='39'> +3.4033749e+02 </wgt>
<wgt id='40'> +3.9796585e+02 </wgt>
<wgt id='41'> +3.1874203e+02 </wgt>
<wgt id='42'> +3.1798938e+02 </wgt>
<wgt id='43'> +3.9796585e+02 </wgt>
<wgt id='44'> +3.1722984e+02 </wgt>
<wgt id='45'> +5.0481800e+02 </wgt>
<wgt id='46'> +5.0744318e+02 </wgt>
<wgt id='47'> +5.2489321e+02 </wgt>
<wgt id='48'> +5.0824465e+02 </wgt>
<wgt id='49'> +5.0371163e+02 </wgt>
<wgt id='50'> +5.9690562e+02 </wgt>
<wgt id='51'> +4.9523282e+02 </wgt>
<wgt id='52'> +5.0215944e+02 </wgt>
<wgt id='53'> +5.0930603e+02 </wgt>
<wgt id='54'> +5.0766860e+02 </wgt>
<wgt id='55'> +4.4960639e+02 </wgt>
<wgt id='56'> +4.6728319e+02 </wgt>
<wgt id='57'> +4.9038423e+02 </wgt>
<wgt id='58'> +5.0554176e+02 </wgt>
<wgt id='59'> +4.9901993e+02 </wgt>
<wgt id='60'> +4.8588348e+02 </wgt>
<wgt id='61'> +4.8828028e+02 </wgt>
<wgt id='62'> +4.9894599e+02 </wgt>
<wgt id='63'> +5.0537840e+02 </wgt>
<wgt id='64'> +4.9776886e+02 </wgt>
<wgt id='65'> +5.9643126e+02 </wgt>
<wgt id='66'> +4.9369930e+02 </wgt>
<wgt id='67'> +5.0943260e+02 </wgt>
<wgt id='68'> +5.4356207e+02 </wgt>
<wgt id='69'> +4.9641227e+02 </wgt>
<wgt id='70'> +4.9597454e+02 </wgt>
<wgt id='71'> +5.1411875e+02 </wgt>
<wgt id='72'> +4.8470450e+02 </wgt>
<wgt id='73'> +4.9682407e+02 </wgt>
<wgt id='74'> +5.2258412e+02 </wgt>
<wgt id='75'> +5.1713281e+02 </wgt>
<wgt id='76'> +4.8885118e+02 </wgt>
<wgt id='77'> +4.8767198e+02 </wgt>
<wgt id='78'> +5.0273776e+02 </wgt>
<wgt id='79'> +4.8563563e+02 </wgt>
<wgt id='80'> +4.9968345e+02 </wgt>
<wgt id='81'> +4.9444419e+02 </wgt>
<wgt id='82'> +5.1760022e+02 </wgt>
<wgt id='83'> +5.1732163e+02 </wgt>
<wgt id='84'> +5.5675526e+02 </wgt>
<wgt id='85'> +5.3187863e+02 </wgt>
<wgt id='86'> +5.0349642e+02 </wgt>
<wgt id='87'> +5.0566693e+02 </wgt>
<wgt id='88'> +5.1511615e+02 </wgt>
<wgt id='89'> +5.1781895e+02 </wgt>
<wgt id='90'> +5.1084067e+02 </wgt>
<wgt id='91'> +5.3689848e+02 </wgt>
<wgt id='92'> +4.5880862e+02 </wgt>
<wgt id='93'> +4.9768359e+02 </wgt>
<wgt id='94'> +5.0018258e+02 </wgt>
<wgt id='95'> +4.8205500e+02 </wgt>
<wgt id='96'> +5.4996851e+02 </wgt>
<wgt id='97'> +5.1124353e+02 </wgt>
<wgt id='98'> +4.8196556e+02 </wgt>
<wgt id='99'> +4.8910488e+02 </wgt>
<wgt id='100'> +4.9661790e+02 </wgt>
<wgt id='101'> +5.3495737e+02 </wgt>
<wgt id='102'> +4.9444484e+02 </wgt>
<wgt id='103'> +5.5034503e+02 </wgt>
<wgt id='104'> +5.0584331e+02 </wgt>
<wgt id='105'> +5.2233640e+02 </wgt>
<wgt id='106'> +4.5967422e+02 </wgt>
<wgt id='107'> +4.9422427e+02 </wgt>
<wgt id='108'> +4.4837094e+02 </wgt>
<wgt id='109'> +4.7127369e+02 </wgt>
<wgt id='110'> +5.0455369e+02 </wgt>
<wgt id='111'> +4.8984899e+02 </wgt>
<wgt id='112'> +4.7967170e+02 </wgt>
<wgt id='113'> +4.6124346e+02 </wgt>
<wgt id='114'> +4.9905483e+02 </wgt>
<wgt id='115'> +5.0243341e+02 </wgt>
<wgt id='116'> +5.0837729e+02 </wgt>
<wgt id='117'> +5.1049187e+02 </wgt>
<wgt id='118'> +5.2096158e+02 </wgt>
<wgt id='119'> +4.8350030e+02 </wgt>
<wgt id='120'> +5.0096424e+02 </wgt>
<wgt id='121'> +4.8852108e+02 </wgt>
<wgt id='122'> +4.9752132e+02 </wgt>
<wgt id='123'> +5.1283394e+02 </wgt>
<wgt id='124'> +5.4301677e+02 </wgt>
<wgt id='125'> +5.4382203e+02 </wgt>
<wgt id='126'> +5.2639384e+02 </wgt>
<wgt id='127'> +5.2117924e+02 </wgt>
<wgt id='128'> +4.6731001e+02 </wgt>
<wgt id='129'> +5.7263560e+02 </wgt>
<wgt id='130'> +5.1063287e+02 </wgt>
<wgt id='131'> +5.4067573e+02 </wgt>
<wgt id='132'> +5.0055925e+02 </wgt>
<wgt id='133'> +5.0396559e+02 </wgt>
<wgt id='134'> +4.7490106e+02 </wgt>
<wgt id='135'> +5.1770249e+02 </wgt>
<wgt id='136'> +4.8451614e+02 </wgt>
<wgt id='137'> +4.7700423e+02 </wgt>
<wgt id='138'> +4.6332973e+02 </wgt>
<wgt id='139'> +5.1569281e+02 </wgt>
<wgt id='140'> +5.3529371e+02 </wgt>
<wgt id='141'> +5.0514787e+02 </wgt>
<wgt id='142'> +5.0537535e+02 </wgt>
<wgt id='143'> +5.0112179e+02 </wgt>
<wgt id='144'> +5.0212429e+02 </wgt>
<wgt id='145'> +5.0605493e+02 </wgt>
</rwgt>
</event>
<event>
 4      1 +5.0481800e+02 1.83253300e+02 7.54677100e-03 1.16469100e-01
       21 -1    0    0  503  502 +0.0000000000e+00 +0.0000000000e+00 +7.4987092311e+02 7.4987092311e+02 0.0000000000e+00 0.0000e+00 1.0000e+00
       21 -1    0    0  501  503 -0.0000000000e+00 -0.0000000000e+00 -4.7447484110e+01 4.7447484110e+01 0.0000000000e+00 0.0000e+00 1.0000e+00
        6  1    1    2  501    0 -1.0985564267e+01 -5.9431462671e+01 +2.5674738373e+02 3.1543779170e+02 1.7300000000e+02 0.0000e+00 1.0000e+00
       -6  1    1    2    0  502 +1.0985564267e+01 +5.9431462671e+01 +4.4567605526e+02 4.8188061552e+02 1.7300000000e+02 0.0000e+00 1.0000e+00
<mgrwt>
<rscale>  2 0.18325333E+03</rscale>
<asrwt>0</asrwt>
<pdfrwt beam="1">  1       21 0.11536475E+00 0.18325333E+03</pdfrwt>
<pdfrwt beam="2">  1       21 0.72996135E-02 0.18325333E+03</pdfrwt>
<totfact> 0.82193847E+04</totfact>
</mgrwt>
<rwgt>
<wgt id='1'> +6.5085429e+02 </wgt>
<wgt id='2'> +7.2730496e+02 </wgt>
<wgt id='3'> +5.0481800e+02 </wgt>
<wgt id='4'> +6.5085430e+02 </wgt>
<wgt id='5'> +4.9966175e+02 </wgt>
<wgt id='6'> +6.2089507e+02 </wgt>
<wgt id='7'> +6.9710893e+02 </wgt>
<wgt id='8'> +4.7247640e+02 </wgt>
<wgt id='9'> +6.2089508e+02 </wgt>
<wgt id='10'> +4.6751196e+02 </wgt>
<wgt id='11'> +5.8111689e+02 </wgt>
<wgt id='12'> +6.5678540e+02 </wgt>
<wgt id='13'> +4.4168448e+02 </wgt>
<wgt id='14'> +5.8111690e+02 </wgt>
<wgt id='15'> +4.3704028e+02 </wgt>
<wgt id='16'> +5.2917631e+02 </wgt>
<wgt id='17'> +5.8481256e+02 </wgt>
<wgt id='18'> +4.2438723e+02 </wgt>
<wgt id='19'> +5.2917631e+02 </wgt>
<wgt id='20'> +4.2041401e+02 </wgt>
<wgt id='21'> +5.6053249e+02 </wgt>
<wgt id='22'> +3.9719850e+02 </wgt>
<wgt id='23'> +5.0481800e+02 </wgt>
<wgt id='24'> +3.9336327e+02 </wgt>
<wgt id='25'> +4.7247640e+02 </wgt>
<wgt id='26'> +5.2810908e+02 </wgt>
<wgt id='27'> +3.7131254e+02 </wgt>
<wgt id='28'> +4.7247640e+02 </wgt>
<wgt id='29'> +3.6772448e+02 </wgt>
<wgt id='30'> +4.4486462e+02 </wgt>
<wgt id='31'> +4.8556692e+02 </wgt>
<wgt id='32'> +3.6187332e+02 </wgt>
<wgt id='33'> +4.4486462e+02 </wgt>
<wgt id='34'> +3.5867386e+02 </wgt>
<wgt id='35'> +4.2438723e+02 </wgt>
<wgt id='36'> +4.6540730e+02 </wgt>
<wgt id='37'> +3.3868959e+02 </wgt>
<wgt id='38'> +4.2438723e+02 </wgt>
<wgt id='39'> +3.3559567e+02 </wgt>
<wgt id='40'> +3.9719850e+02 </wgt>
<wgt id='41'> +4.3848630e+02 </wgt>
<wgt id='42'> +3.1661673e+02 </wgt>
<wgt id='43'> +3.9719850e+02 </wgt>
<wgt id='44'> +3.1372207e+02 </wgt>
<wgt id='45'> +5.0481800e+02 </wgt>
<wgt id='46'> +5.1574174e+02 </wgt>
<wgt id='47'> +5.1594423e+02 </wgt>
<wgt id='48'> +5.0617919e+02 </wgt>
<wgt id='49'> +4.9276356e+02 </wgt>
<wgt id='50'> +5.8867362e+02 </wgt>
<wgt id='51'> +4.9023987e+02 </wgt>
<wgt id='52'> +5.0159440e+02 </wgt>
<wgt id='53'> +4.9722558e+02 </wgt>
<wgt id='54'> +5.1672123e+02 </wgt>
<wgt id='55'> +4.9604927e+02 </wgt>
<wgt id='56'> +4.6680697e+02 </wgt>
<wgt id='57'> +5.1417506e+02 </wgt>
<wgt id='58'> +4.9116602e+02 </wgt>
<wgt id='59'> +5.3007725e+02 </wgt>
<wgt id='60'> +5.0896375e+02 </wgt>
<wgt id='61'> +4.4111781e+02 </wgt>
<wgt id='62'> +4.9143819e+02 </wgt>
<wgt id='63'> +5.1065251e+02 </wgt>
<wgt id='64'> +4.9892851e+02 </wgt>
<wgt id='65'> +5.3648029e+02 </wgt>
<wgt id='66'> +4.9797401e+02 </wgt>
<wgt id='67'> +5.0701203e+02 </wgt>
<wgt id='68'> +5.5957537e+02 </wgt>
<wgt id='69'> +5.0580301e+02 </wgt>
<wgt id='70'> +5.0382605e+02 </wgt>
<wgt id='71'> +5.0394279e+02 </wgt>
<wgt id='72'> +4.8900186e+02 </wgt>
<wgt id='73'> +4.8572114e+02 </wgt>
<wgt id='74'> +5.3718458e+02 </wgt>
<wgt id='75'> +5.1732154e+02 </wgt>
<wgt id='76'> +5.0384705e+02 </wgt>
<wgt id='77'> +4.9508875e+02 </wgt>
<wgt id='78'> +4.7593088e+02 </wgt>
<wgt id='79'> +5.0611490e+02 </wgt>
<wgt id='80'> +4.8589277e+02 </wgt>
<wgt id='81'> +4.9962733e+02 </wgt>
<wgt id='82'> +4.9252576e+02 </wgt>
<wgt id='83'> +5.0494895e+02 </wgt>
<wgt id='84'> +5.2862683e+02 </wgt>
<wgt id='85'> +5.0330274e+02 </wgt>
<wgt id='86'> +5.0867371e+02 </wgt>
<wgt id='87'> +5.0738327e+02 </wgt>
<wgt id='88'> +5.0108285e+02 </wgt>
<wgt id='89'> +5.0084437e+02 </wgt>
<wgt id='90'> +5.1027975e+02 </wgt>
<wgt id='91'> +5.0376506e+02 </wgt>
<wgt id='92'> +4.6905800e+02 </wgt>
<wgt id='93'> +5.0370195e+02 </wgt>
<wgt id='94'> +4.8756700e+02 </wgt>
<wgt id='95'> +5.0796779e+02 </wgt>
<wgt id='96'> +5.3153736e+02 </wgt>
<wgt id='97'> +4.9293333e+02 </wgt>
<wgt id='98'> +5.0102943e+02 </wgt>
<wgt id='99'> +4.7306789e+02 </wgt>
<wgt id='100'> +4.6080824e+02 </wgt>
<wgt id='101'> +5.5926035e+02 </wgt>
<wgt id='102'> +5.2616711e+02 </wgt>
<wgt id='103'> +5.3155475e+02 </wgt>
<wgt id='104'> +5.1120809e+02 </wgt>
<wgt id='105'> +5.2119755e+02 </wgt>
<wgt id='106'> +4.7011484e+02 </wgt>
<wgt id='107'> +4.8342729e+02 </wgt>
<wgt id='108'> +4.5463516e+02 </wgt>
<wgt id='109'> +4.8380548e+02 </wgt>
<wgt id='110'> +4.9735390e+02 </wgt>
<wgt id='111'> +4.9319486e+02 </wgt>
<wgt id='112'> +4.8767013e+02 </wgt>
<wgt id='113'> +4.8005914e+02 </wgt>
<wgt id='114'> +5.0099572e+02 </wgt>
<wgt id='115'> +4.7431249e+02 </wgt>
<wgt id='116'> +5.2459810e+02 </wgt>
<wgt id='117'> +4.9646915e+02 </wgt>
<wgt id='118'> +5.2658613e+02 </wgt>
<wgt id='119'> +5.0428277e+02 </wgt>
<wgt id='120'> +4.9521488e+02 </wgt>
<wgt id='121'> +5.0085168e+02 </wgt>
<wgt id='122'> +4.9993468e+02 </wgt>
<wgt id='123'> +5.0261310e+02 </wgt>
<wgt id='124'> +5.5682249e+02 </wgt>
<wgt id='125'> +5.6884130e+02 </wgt>
<wgt id='126'> +5.1392616e+02 </wgt>
<wgt id='127'> +5.1159644e+02 </wgt>
<wgt id='128'> +4.6291118e+02 </wgt>
<wgt id='129'> +5.5368575e+02 </wgt>
<wgt id='130'> +4.9333737e+02 </wgt>
<wgt id='131'> +5.1459790e+02 </wgt>
<wgt id='132'> +5.3717894e+02 </wgt>
<wgt id='133'> +5.2314952e+02 </wgt>
<wgt id='134'> +4.9994904e+02 </wgt>
<wgt id='135'> +5.0671801e+02 </wgt>
<wgt id='136'> +5.3670918e+02 </wgt>
<wgt id='137'> +4.8893396e+02 </wgt>
<wgt id='138'> +4.7911093e+02 </wgt>
<wgt id='139'> +5.1986510e+02 </wgt>
<wgt id='140'> +5.1301343e+02 </wgt>
<wgt id='141'> +5.1928163e+02 </wgt>
<wgt id='142'> +4.6136242e+02 </wgt>
<wgt id='143'> +5.1775691e+02 </wgt>
<wgt id='144'> +4.9139071e+02 </wgt>
<wgt id='145'> +4.9473200e+02 </wgt>
</rwgt>
</event>
<event>
 4      1 +5.0481800e+02 1.82542200e+02 7.54677100e-03 1.16536500e-01
       21 -1    0    0  503  502 +0.0000000000e+00 +0.0000000000e+00 +1.9500221238e+02 1.9500221238e+02 0.0000000000e+00 0.0000e+00 -1.0000e+00
       21 -1    0    0  501  503 -0.0000000000e+00 -0.0000000000e+00 -2.6251434441e+02 2.6251434441e+02 0.0000000000e+00 0.0000e+00 -1.0000e+00
        6  1    1    2  501    0 -5.4682931178e+01 +2.0060278512e+01 -1.6891151945e+02 2.4870210924e+02 1.7300000000e+02 0.0000e+00 -1.0000e+00
       -6  1    1    2    0  502 +5.4682931178e+01 -2.0060278512e+01 +1.0139938742e+02 2.0881444755e+02 1.7300000000e+02 0.0000e+00 -1.0000e+00
<mgrwt>
<rscale>  2 0.18254215E+03</rscale>
<asrwt>0</asrwt>
<pdfrwt beam="1">  1       21 0.30000340E-01 0.18254215E+03</pdfrwt>
<pdfrwt beam="2">  1       21 0.40386822E-01 0.18254215E+03</pdfrwt>
<totfact> 0.63227666E+04</totfact>
</mgrwt>
<rwgt>
<wgt id='1'> +6.5020461e+02 </wgt>
<wgt id='2'> +6.4686036e+02 </wgt>
<wgt id='3'> +5.0481800e+02 </wgt>
<wgt id='4'> +6.5020461e+02 </wgt>
<wgt id='5'> +4.6822949e+02 </wgt>
<wgt id='6'> +6.2099817e+02 </wgt>
<wgt id='7'> +6.1759793e+02 </wgt>
<wgt id='8'> +4.7334027e+02 </wgt>
<wgt id='9'> +6.2099816e+02 </wgt>
<wgt id='10'> +4.3873024e+02 </wgt>
<wgt id='11'> +5.8227608e+02 </wgt>
<wgt id='12'> +5.7900590e+02 </wgt>
<wgt id='13'> +4.4346076e+02 </wgt>
<wgt id='14'> +5.8227607e+02 </wgt>
<wgt id='15'> +4.1106344e+02 </wgt>
<wgt id='16'> +5.2856032e+02 </wgt>
<wgt id='17'> +5.2615728e+02 </wgt>
<wgt id='18'> +4.2433647e+02 </wgt>
<wgt id='19'> +5.2856032e+02 </wgt>
<wgt id='20'> +3.9554729e+02 </wgt>
<wgt id='21'> +5.0235517e+02 </wgt>
<wgt id='22'> +3.9787714e+02 </wgt>
<wgt id='23'> +5.0481800e+02 </wgt>
<wgt id='24'> +3.7062715e+02 </wgt>
<wgt id='25'> +4.7334028e+02 </wgt>
<wgt id='26'> +4.7096434e+02 </wgt>
<wgt id='27'> +3.7276122e+02 </wgt>
<wgt id='28'> +4.7334027e+02 </wgt>
<wgt id='29'> +3.4725500e+02 </wgt>
<wgt id='30'> +4.4429363e+02 </wgt>
<wgt id='31'> +4.4246011e+02 </wgt>
<wgt id='32'> +3.6180437e+02 </wgt>
<wgt id='33'> +4.4429363e+02 </wgt>
<wgt id='34'> +3.3855557e+02 </wgt>
<wgt id='35'> +4.2433647e+02 </wgt>
<wgt id='36'> +4.2244426e+02 </wgt>
<wgt id='37'> +3.3924421e+02 </wgt>
<wgt id='38'> +4.2433647e+02 </wgt>
<wgt id='39'> +3.1722600e+02 </wgt>
<wgt id='40'> +3.9787714e+02 </wgt>
<wgt id='41'> +3.9604685e+02 </wgt>
<wgt id='42'> +3.1782948e+02 </wgt>
<wgt id='43'> +3.9787714e+02 </wgt>
<wgt id='44'> +2.9722139e+02 </wgt>
<wgt id='45'> +5.0481800e+02 </wgt>
<wgt id='46'> +5.0394806e+02 </wgt>
<wgt id='47'> +5.2316402e+02 </wgt>
<wgt id='48'> +5.0607571e+02 </wgt>
<wgt id='49'> +5.0432326e+02 </wgt>
<wgt id='50'> +5.8928956e+02 </wgt>
<wgt id='51'> +4.9513647e+02 </wgt>
<wgt id='52'> +5.0165380e+02 </wgt>
<wgt id='53'> +5.1210035e+02 </wgt>
<wgt id='54'> +5.0755048e+02 </wgt>
<wgt id='55'> +4.4845382e+02 </wgt>
<wgt id='56'> +4.7008720e+02 </wgt>
<wgt id='57'> +4.8993457e+02 </wgt>
<wgt id='58'> +5.0924325e+02 </wgt>
<wgt id='59'> +4.9502172e+02 </wgt>
<wgt id='60'> +4.8205207e+02 </wgt>
<wgt id='61'> +4.9535525e+02 </wgt>
<wgt id='62'> +4.9832520e+02 </wgt>
<wgt id='63'> +5.0519682e+02 </wgt>
<wgt id='64'> +5.0088347e+02 </wgt>
<wgt id='65'> +5.9958819e+02 </wgt>
<wgt id='66'> +4.9234913e+02 </wgt>
<wgt id='67'> +5.0947248e+02 </wgt>
<wgt id='68'> +5.3974520e+02 </wgt>
<wgt id='69'> +4.9139930e+02 </wgt>
<wgt id='70'> +4.9615758e+02 </wgt>
<wgt id='71'> +5.1467410e+02 </wgt>
<wgt id='72'> +4.9089797e+02 </wgt>
<wgt id='73'> +4.9876821e+02 </wgt>
<wgt id='74'> +5.1887743e+02 </wgt>
<wgt id='75'> +5.1615075e+02 </wgt>
<wgt id='76'> +4.8915627e+02 </wgt>
<wgt id='77'> +4.8520253e+02 </wgt>
<wgt id='78'> +5.0709221e+02 </wgt>
<wgt id='79'> +4.8261829e+02 </wgt>
<wgt id='80'> +5.0112014e+02 </wgt>
<wgt id='81'> +4.9539847e+02 </wgt>
<wgt id='82'> +5.2033339e+02 </wgt>
<wgt id='83'> +5.1581349e+02 </wgt>
<wgt id='84'> +5.5611071e+02 </wgt>
<wgt id='85'> +5.3313538e+02 </wgt>
<wgt id='86'> +5.0103842e+02 </wgt>
<wgt id='87'> +5.0450052e+02 </wgt>
<wgt id='88'> +5.1418823e+02 </wgt>
<wgt id='89'> +5.1723128e+02 </wgt>
<wgt id='90'> +5.0996452e+02 </wgt>
<wgt id='91'> +5.3910476e+02 </wgt>
<wgt id='92'> +4.6402389e+02 </wgt>
<wgt id='93'> +4.9548486e+02 </wgt>
<wgt id='94'> +5.0292111e+02 </wgt>
<wgt id='95'> +4.8287998e+02 </wgt>
<wgt id='96'> +5.4639115e+02 </wgt>
<wgt id='97'> +5.1382901e+02 </wgt>
<wgt id='98'> +4.8018197e+02 </wgt>
<wgt id='99'> +4.9085024e+02 </wgt>
<wgt id='100'> +5.0323553e+02 </wgt>
<wgt id='101'> +5.2815177e+02 </wgt>
<wgt id='102'> +4.8757126e+02 </wgt>
<wgt id='103'> +5.4907190e+02 </wgt>
<wgt id='104'> +5.0361268e+02 </wgt>
<wgt id='105'> +5.2532555e+02 </wgt>
<wgt id='106'> +4.6427031e+02 </wgt>
<wgt id='107'> +5.0012174e+02 </wgt>
<wgt id='108'> +4.5246337e+02 </wgt>
<wgt id='109'> +4.7400328e+02 </wgt>
<wgt id='110'> +5.0616389e+02 </wgt>
<wgt id='111'> +4.9158662e+02 </wgt>
<wgt id='112'> +4.8210125e+02 </wgt>
<wgt id='113'> +4.6269416e+02 </wgt>
<wgt id='114'> +5.0487444e+02 </wgt>
<wgt id='115'> +5.0867421e+02 </wgt>
<wgt id='116'> +5.0286286e+02 </wgt>
<wgt id='117'> +5.1292794e+02 </wgt>
<wgt id='118'> +5.1655678e+02 </wgt>
<wgt id='119'> +4.8448370e+02 </wgt>
<wgt id='120'> +5.0465632e+02 </wgt>
<wgt id='121'> +4.9017592e+02 </wgt>
<wgt id='122'> +4.9810193e+02 </wgt>
<wgt id='123'> +5.1172824e+02 </wgt>
<wgt id='124'> +5.3762251e+02 </wgt>
<wgt id='125'> +5.3867581e+02 </wgt>
<wgt id='126'> +5.2478077e+02 </wgt>
<wgt id='127'> +5.2002106e+02 </wgt>
<wgt id='128'> +4.6943081e+02 </wgt>
<wgt id='129'> +5.7283376e+02 </wgt>
<wgt id='130'> +5.0964654e+02 </wgt>
<wgt id='131'> +5.4237099e+02 </wgt>
<wgt id='132'> +4.9642410e+02 </wgt>
<wgt id='133'> +4.9979227e+02 </wgt>
<wgt id='134'> +4.7295153e+02 </wgt>
<wgt id='135'> +5.1847584e+02 </wgt>
<wgt id='136'> +4.8062724e+02 </wgt>
<wgt id='137'> +4.7434128e+02 </wgt>
<wgt id='138'> +4.5727139e+02 </wgt>
<wgt id='139'> +5.1411864e+02 </wgt>
<wgt id='140'> +5.3865189e+02 </wgt>
<wgt id='141'> +5.0339332e+02 </wgt>
<wgt id='142'> +5.1104412e+02 </wgt>
<wgt id='143'> +4.9879768e+02 </wgt>
<wgt id='144'> +5.0511274e+02 </wgt>
<wgt id='145'> +5.0613934e+02 </wgt>
</rwgt>
</event>
<event>
 4      1 +5.0481800e+02 1.89619200e+02 7.54677100e-03 1.15880500e-01
       21 -1    0    0  501  502 +0.0000000000e+00 +0.0000000000e+00 +5.7179797165e+01 5.7179797165e+01 0.0000000000e+00 0.0000e+00 -1.0000e+00
       21 -1    0    0  502  503 -0.0000000000e+00 -0.0000000000e+00 -8.0840145716e+02 8.0840145716e+02 0.0000000000e+00 0.0000e+00 -1.0000e+00
        6  1    1    2  501    0 -4.7220223996e+01 -6.1617145778e+01 -5.7959808730e+02 6.0982732393e+02 1.7300000000e+02 0.0000e+00 -1.0000e+00
       -6  1    1    2    0  503 +4.7220223996e+01 +6.1617145778e+01 -1.7162357269e+02 2.5575393039e+02 1.7300000000e+02 0.0000e+00 -1.0000e+00
<mgrwt>
<rscale>  2 0.18961915E+03</rscale>
<asrwt>0</asrwt>
<pdfrwt beam="1">  1       21 0.87968923E-02 0.18961915E+03</pdfrwt>
<pdfrwt beam="2">  1       21 0.12436945E+00 0.18961915E+03</pdfrwt>
<totfact> 0.49195123E+04</totfact>
</mgrwt>
<rwgt>
<wgt id='1'> +6.5706065e+02 </wgt>
<wgt id='2'> +6.6152256e+02 </wgt>
<wgt id='3'> +5.0481800e+02 </wgt>
<wgt id='4'> +6.5706065e+02 </wgt>
<wgt id='5'> +4.8209736e+02 </wgt>
<wgt id='6'> +6.1994077e+02 </wgt>
<wgt id='7'> +6.2441707e+02 </wgt>
<wgt id='8'> +4.6806457e+02 </wgt>
<wgt id='9'> +6.1994077e+02 </wgt>
<wgt id='10'> +4.4686528e+02 </wgt>
<wgt id='11'> +5.7480579e+02 </wgt>
<wgt id='12'> +5.7903841e+02 </wgt>
<wgt id='13'> +4.3400105e+02 </wgt>
<wgt id='14'> +5.7480579e+02 </wgt>
<wgt id='15'> +4.1439959e+02 </wgt>
<wgt id='16'> +5.3504473e+02 </wgt>
<wgt id='17'> +5.3824834e+02 </wgt>
<wgt id='18'> +4.2481676e+02 </wgt>
<wgt id='19'> +5.3504473e+02 </wgt>
<wgt id='20'> +4.0687317e+02 </wgt>
<wgt id='21'> +5.0805742e+02 </wgt>
<wgt id='22'> +3.9388785e+02 </wgt>
<wgt id='23'> +5.0481800e+02 </wgt>
<wgt id='24'> +3.7713854e+02 </wgt>
<wgt id='25'> +4.6806457e+02 </wgt>
<wgt id='26'> +4.7113504e+02 </wgt>
<wgt id='27'> +3.6522256e+02 </wgt>
<wgt id='28'> +4.6806457e+02 </wgt>
<wgt id='29'> +3.4973864e+02 </wgt>
<wgt id='30'> +4.5025330e+02 </wgt>
<wgt id='31'> +4.5272040e+02 </wgt>
<wgt id='32'> +3.6246461e+02 </wgt>
<wgt id='33'> +4.5025330e+02 </wgt>
<wgt id='34'> +3.4793914e+02 </wgt>
<wgt id='35'> +4.2481676e+02 </wgt>
<wgt id='36'> +4.2732684e+02 </wgt>
<wgt id='37'> +3.3607527e+02 </wgt>
<wgt id='38'> +4.2481676e+02 </wgt>
<wgt id='39'> +3.2251146e+02 </wgt>
<wgt id='40'> +3.9388785e+02 </wgt>
<wgt id='41'> +3.9627144e+02 </wgt>
<wgt id='42'> +3.1161730e+02 </wgt>
<wgt id='43'> +3.9388785e+02 </wgt>
<wgt id='44'> +2.9908033e+02 </wgt>
<wgt id='45'> +5.0481800e+02 </wgt>
<wgt id='46'> +5.1704092e+02 </wgt>
<wgt id='47'> +5.1697414e+02 </wgt>
<wgt id='48'> +5.0639251e+02 </wgt>
<wgt id='49'> +4.8975022e+02 </wgt>
<wgt id='50'> +5.9400289e+02 </wgt>
<wgt id='51'> +4.8843295e+02 </wgt>
<wgt id='52'> +4.9955789e+02 </wgt>
<wgt id='53'> +4.9741794e+02 </wgt>
<wgt id='54'> +5.1905262e+02 </wgt>
<wgt id='55'> +5.0121640e+02 </wgt>
<wgt id='56'> +4.6605805e+02 </wgt>
<wgt id='57'> +5.1682187e+02 </wgt>
<wgt id='58'> +4.8670386e+02 </wgt>
<wgt id='59'> +5.3315610e+02 </wgt>
<wgt id='60'> +5.0841249e+02 </wgt>
<wgt id='61'> +4.3925430e+02 </wgt>
<wgt id='62'> +4.8909878e+02 </wgt>
<wgt id='63'> +5.1234525e+02 </wgt>
<wgt id='64'> +4.9894949e+02 </wgt>
<wgt id='65'> +5.3282762e+02 </wgt>
<wgt id='66'> +4.9891426e+02 </wgt>
<wgt id='67'> +5.0699785e+02 </wgt>
<wgt id='68'> +5.6512040e+02 </wgt>
<wgt id='69'> +5.1015042e+02 </wgt>
<wgt id='70'> +5.0588053e+02 </wgt>
<wgt id='71'> +5.0153262e+02 </wgt>
<wgt id='72'> +4.8571947e+02 </wgt>
<wgt id='73'> +4.8181190e+02 </wgt>
<wgt id='74'> +5.4143283e+02 </wgt>
<wgt id='75'> +5.1969280e+02 </wgt>
<wgt id='76'> +5.0543316e+02 </wgt>
<wgt id='77'> +4.9390773e+02 </wgt>
<wgt id='78'> +4.7115120e+02 </wgt>
<wgt id='79'> +5.0862546e+02 </wgt>
<wgt id='80'> +4.8220528e+02 </wgt>
<wgt id='81'> +5.0064344e+02 </wgt>
<wgt id='82'> +4.9048695e+02 </wgt>
<wgt id='83'> +5.0496863e+02 </wgt>
<wgt id='84'> +5.2738680e+02 </wgt>
<wgt id='85'> +4.9919359e+02 </wgt>
<wgt id='86'> +5.1067719e+02 </wgt>
<wgt id='87'> +5.0700077e+02 </wgt>
<wgt id='88'> +5.0061594e+02 </wgt>
<wgt id='89'> +4.9547026e+02 </wgt>
<wgt id='90'> +5.0770522e+02 </wgt>
<wgt id='91'> +4.9839733e+02 </wgt>
<wgt id='92'> +4.6750328e+02 </wgt>
<wgt id='93'> +5.0419106e+02 </wgt>
<wgt id='94'> +4.8440667e+02 </wgt>
<wgt id='95'> +5.1055969e+02 </wgt>
<wgt id='96'> +5.3238908e+02 </wgt>
<wgt id='97'> +4.8955413e+02 </wgt>
<wgt id='98'> +5.0430913e+02 </wgt>
<wgt id='99'> +4.6756305e+02 </wgt>
<wgt id='100'> +4.5188405e+02 </wgt>
<wgt id='101'> +5.6443189e+02 </wgt>
<wgt id='102'> +5.3155569e+02 </wgt>
<wgt id='103'> +5.2870457e+02 </wgt>
<wgt id='104'> +5.1444415e+02 </wgt>
<wgt id='105'> +5.2091513e+02 </wgt>
<wgt id='106'> +4.6985240e+02 </wgt>
<wgt id='107'> +4.8145014e+02 </wgt>
<wgt id='108'> +4.5413366e+02 </wgt>
<wgt id='109'> +4.8425825e+02 </wgt>
<wgt id='110'> +4.9407193e+02 </wgt>
<wgt id='111'> +4.9303008e+02 </wgt>
<wgt id='112'> +4.9017846e+02 </wgt>
<wgt id='113'> +4.8233487e+02 </wgt>
<wgt id='114'> +5.0243319e+02 </wgt>
<wgt id='115'> +4.7244741e+02 </wgt>
<wgt id='116'> +5.2863058e+02 </wgt>
<wgt id='117'> +4.9576698e+02 </wgt>
<wgt id='118'> +5.2773728e+02 </wgt>
<wgt id='119'> +5.0776102e+02 </wgt>
<wgt id='120'> +4.9681529e+02 </wgt>
<wgt id='121'> +5.0072647e+02 </wgt>
<wgt id='122'> +4.9950852e+02 </wgt>
<wgt id='123'> +5.0177676e+02 </wgt>
<wgt id='124'> +5.6075366e+02 </wgt>
<wgt id='125'> +5.7621814e+02 </wgt>
<wgt id='126'> +5.1261188e+02 </wgt>
<wgt id='127'> +5.0976379e+02 </wgt>
<wgt id='128'> +4.6362173e+02 </wgt>
<wgt id='129'> +5.5219942e+02 </wgt>
<wgt id='130'> +4.9225871e+02 </wgt>
<wgt id='131'> +5.1044887e+02 </wgt>
<wgt id='132'> +5.4028659e+02 </wgt>
<wgt id='133'> +5.2661790e+02 </wgt>
<wgt id='134'> +5.0234812e+02 </wgt>
<wgt id='135'> +5.0456223e+02 </wgt>
<wgt id='136'> +5.4336891e+02 </wgt>
<wgt id='137'> +4.9183938e+02 </wgt>
<wgt id='138'> +4.8298559e+02 </wgt>
<wgt id='139'> +5.2020273e+02 </wgt>
<wgt id='140'> +5.1079561e+02 </wgt>
<wgt id='141'> +5.2395344e+02 </wgt>
<wgt id='142'> +4.5070822e+02 </wgt>
<wgt id='143'> +5.1836312e+02 </wgt>
<wgt id='144'> +4.8756966e+02 </wgt>
<wgt id='145'> +4.9211224e+02 </wgt>
</rwgt>
</event>
<event>
 4      1 +5.0481800e+02 2.01351000e+02 7.54677100e-03 1.14860400e-01
       21 -1    0    0  501  502 +0.0000000000e+00 +0.0000000000e+00 +2.5556803327e+02 2.5556803327e+02 0.0000000000e+00 0.0000e+00 1.0000e+00
       21 -1    0    0  502  503 -0.0000000000e+00 -0.0000000000e+00 -1.9194850763e+02 1.9194850763e+02 0.0000000000e+00 0.0000e+00 -1.0000e+00
        6  1    1    2  501    0 +3.7542447702e+01 -9.5936281735e+01 +1.2502621235e+02 2.3701004052e+02 1.7300000000e+02 0.0000e+00 1.0000e+00
       -6  1    1    2    0  503 -3.7542447702e+01 +9.5936281735e+01 -6.1406686707e+01 2.1050650039e+02 1.7300000000e+02 0.0000e+00 -1.0000e+00
<mgrwt>
<rscale>  2 0.20135095E+03</rscale>
<asrwt>0</asrwt>
<pdfrwt beam="1">  1       21 0.39318159E-01 0.20135095E+03</pdfrwt>
<pdfrwt beam="2">  1       21 0.29530540E-01 0.20135095E+03</pdfrwt>
<totfact> 0.68259251E+04</totfact>
</mgrwt>
<rwgt>
<wgt id='1'> +6.4778706e+02 </wgt>
<wgt id='2'> +5.4053170e+02 </wgt>
<wgt id='3'> +5.0481800e+02 </wgt>
<wgt id='4'> +6.4778706e+02 </wgt>
<wgt id='5'> +4.8839024e+02 </wgt>
<wgt id='6'> +6.1806549e+02 </wgt>
<wgt id='7'> +5.0825262e+02 </wgt>
<wgt id='8'> +4.7367169e+02 </wgt>
<wgt id='9'> +6.1806549e+02 </wgt>
<wgt id='10'> +4.5824678e+02 </wgt>
<wgt id='11'> +5.7993203e+02 </wgt>
<wgt id='12'> +4.7678725e+02 </wgt>
<wgt id='13'> +4.4434273e+02 </wgt>
<wgt id='14'> +5.7993203e+02 </wgt>
<wgt id='15'> +4.2988078e+02 </wgt>
<wgt id='16'> +5.2909372e+02 </wgt>
<wgt id='17'> +4.5285315e+02 </wgt>
<wgt id='18'> +4.2548059e+02 </wgt>
<wgt id='19'> +5.2909372e+02 </wgt>
<wgt id='20'> +4.1241294e+02 </wgt>
<wgt id='21'> +4.2580999e+02 </wgt>
<wgt id='22'> +3.9922924e+02 </wgt>
<wgt id='23'> +5.0481800e+02 </wgt>
<wgt id='24'> +3.8695881e+02 </wgt>
<wgt id='25'> +4.7367169e+02 </wgt>
<wgt id='26'> +3.9944856e+02 </wgt>
<wgt id='27'> +3.7450964e+02 </wgt>
<wgt id='28'> +4.7367169e+02 </wgt>
<wgt id='29'> +3.6300561e+02 </wgt>
<wgt id='30'> +4.4594112e+02 </wgt>
<wgt id='31'> +3.8542835e+02 </wgt>
<wgt id='32'> +3.6342544e+02 </wgt>
<wgt id='33'> +4.4594112e+02 </wgt>
<wgt id='34'> +3.5286010e+02 </wgt>
<wgt id='35'> +4.2548059e+02 </wgt>
<wgt id='36'> +3.6241162e+02 </wgt>
<wgt id='37'> +3.4100278e+02 </wgt>
<wgt id='38'> +4.2548059e+02 </wgt>
<wgt id='39'> +3.3108157e+02 </wgt>
<wgt id='40'> +3.9922924e+02 </wgt>
<wgt id='41'> +3.3997511e+02 </wgt>
<wgt id='42'> +3.1988846e+02 </wgt>
<wgt id='43'> +3.9922924e+02 </wgt>
<wgt id='44'> +3.1058724e+02 </wgt>
<wgt id='45'> +5.0481800e+02 </wgt>
<wgt id='46'> +5.0391355e+02 </wgt>
<wgt id='47'> +5.2290528e+02 </wgt>
<wgt id='48'> +5.0599096e+02 </wgt>
<wgt id='49'> +5.0414717e+02 </wgt>
<wgt id='50'> +5.8794755e+02 </wgt>
<wgt id='51'> +4.9516449e+02 </wgt>
<wgt id='52'> +5.0150093e+02 </wgt>
<wgt id='53'> +5.1209766e+02 </wgt>
<wgt id='54'> +5.0760593e+02 </wgt>
<wgt id='55'> +4.4950917e+02 </wgt>
<wgt id='56'> +4.7065890e+02 </wgt>
<wgt id='57'> +4.9028601e+02 </wgt>
<wgt id='58'> +5.0908843e+02 </wgt>
<wgt id='59'> +4.9516906e+02 </wgt>
<wgt id='60'> +4.8225651e+02 </wgt>
<wgt id='61'> +4.9533091e+02 </wgt>
<wgt id='62'> +4.9827660e+02 </wgt>
<wgt id='63'> +5.0527064e+02 </wgt>
<wgt id='64'> +5.0102788e+02 </wgt>
<wgt id='65'> +5.9811520e+02 </wgt>
<wgt id='66'> +4.9261803e+02 </wgt>
<wgt id='67'> +5.0945286e+02 </wgt>
<wgt id='68'> +5.3941027e+02 </wgt>
<wgt id='69'> +4.9162329e+02 </wgt>
<wgt id='70'> +4.9640989e+02 </wgt>
<wgt id='71'> +5.1449471e+02 </wgt>
<wgt id='72'> +4.9119944e+02 </wgt>
<wgt id='73'> +4.9869687e+02 </wgt>
<wgt id='74'> +5.1871094e+02 </wgt>
<wgt id='75'> +5.1608083e+02 </wgt>
<wgt id='76'> +4.8953777e+02 </wgt>
<wgt id='77'> +4.8535395e+02 </wgt>
<wgt id='78'> +5.0696209e+02 </wgt>
<wgt id='79'> +4.8300366e+02 </wgt>
<wgt id='80'> +5.0112012e+02 </wgt>
<wgt id='81'> +4.9565273e+02 </wgt>
<wgt id='82'> +5.1999001e+02 </wgt>
<wgt id='83'> +5.1556036e+02 </wgt>
<wgt id='84'> +5.5531726e+02 </wgt>
<wgt id='85'> +5.3244515e+02 </wgt>
<wgt id='86'> +5.0109378e+02 </wgt>
<wgt id='87'> +5.0442684e+02 </wgt>
<wgt id='88'> +5.1404366e+02 </wgt>
<wgt id='89'> +5.1667032e+02 </wgt>
<wgt id='90'> +5.0976975e+02 </wgt>
<wgt id='91'> +5.3848323e+02 </wgt>
<wgt id='92'> +4.6482841e+02 </wgt>
<wgt id='93'> +4.9555341e+02 </wgt>
<wgt id='94'> +5.0289808e+02 </wgt>
<wgt id='95'> +4.8339250e+02 </wgt>
<wgt id='96'> +5.4560792e+02 </wgt>
<wgt id='97'> +5.1363652e+02 </wgt>
<wgt id='98'> +4.8068803e+02 </wgt>
<wgt id='99'> +4.9078365e+02 </wgt>
<wgt id='100'> +5.0305794e+02 </wgt>
<wgt id='101'> +5.2779254e+02 </wgt>
<wgt id='102'> +4.8787455e+02 </wgt>
<wgt id='103'> +5.4812064e+02 </wgt>
<wgt id='104'> +5.0369933e+02 </wgt>
<wgt id='105'> +5.2514738e+02 </wgt>
<wgt id='106'> +4.6505308e+02 </wgt>
<wgt id='107'> +5.0026848e+02 </wgt>
<wgt id='108'> +4.5340500e+02 </wgt>
<wgt id='109'> +4.7454786e+02 </wgt>
<wgt id='110'> +5.0601576e+02 </wgt>
<wgt id='111'> +4.9186222e+02 </wgt>
<wgt id='112'> +4.8260674e+02 </wgt>
<wgt id='113'> +4.6347490e+02 </wgt>
<wgt id='114'> +5.0510358e+02 </wgt>
<wgt id='115'> +5.0879545e+02 </wgt>
<wgt id='116'> +5.0285961e+02 </wgt>
<wgt id='117'> +5.1283902e+02 </wgt>
<wgt id='118'> +5.1628456e+02 </wgt>
<wgt id='119'> +4.8496211e+02 </wgt>
<wgt id='120'> +5.0484973e+02 </wgt>
<wgt id='121'> +4.9038150e+02 </wgt>
<wgt id='122'> +4.9822484e+02 </wgt>
<wgt id='123'> +5.1156930e+02 </wgt>
<wgt id='124'> +5.3712564e+02 </wgt>
<wgt id='125'> +5.3833639e+02 </wgt>
<wgt id='126'> +5.2440052e+02 </wgt>
<wgt id='127'> +5.1963219e+02 </wgt>
<wgt id='128'> +4.7004398e+02 </wgt>
<wgt id='129'> +5.7170249e+02 </wgt>
<wgt id='130'> +5.0952000e+02 </wgt>
<wgt id='131'> +5.4164108e+02 </wgt>
<wgt id='132'> +4.9661284e+02 </wgt>
<wgt id='133'> +4.9988285e+02 </wgt>
<wgt id='134'> +4.7354591e+02 </wgt>
<wgt id='135'> +5.1810764e+02 </wgt>
<wgt id='136'> +4.8115352e+02 </wgt>
<wgt id='137'> +4.7486549e+02 </wgt>
<wgt id='138'> +4.5797944e+02 </wgt>
<wgt id='139'> +5.1386084e+02 </wgt>
<wgt id='140'> +5.3810757e+02 </wgt>
<wgt id='141'> +5.0359549e+02 </wgt>
<wgt id='142'> +5.1070706e+02 </wgt>
<wgt id='143'> +4.9892046e+02 </wgt>
<wgt id='144'> +5.0504982e+02 </wgt>
<wgt id='145'> +5.0604277e+02 </wgt>
</rwgt>
</event>
<event>
 4      1 +5.0481800e+02 2.04919400e+02 7.54677100e-03 1.14565400e-01
       21 -1    0    0  503  502 +0.0000000000e+00 +0.0000000000e+00 +4.9432748327e+02 4.9432748327e+02 0.0000000000e+00 0.0000e+00 1.0000e+00
       21 -1    0    0  501  503 -0.0000000000e+00 -0.0000000000e+00 -8.5614938820e+01 8.5614938820e+01 0.0000000000e+00 0.0000e+00 -1.0000e+00
        6  1    1    2  501    0 -6.4921408506e+01 +8.8589835015e+01 +1.7875606164e+02 2.7192954552e+02 1.7300000000e+02 0.0000e+00 1.0000e+00
       -6  1    1    2    0  502 +6.4921408506e+01 -8.8589835015e+01 +2.2995648280e+02 3.0801287657e+02 1.7300000000e+02 0.0000e+00 1.0000e+00
<mgrwt>
<rscale>  2 0.20491937E+03</rscale>
<asrwt>0</asrwt>
<pdfrwt beam="1">  1       21 0.76050380E-01 0.20491937E+03</pdfrwt>
<pdfrwt beam="2">  1       21 0.13171529E-01 0.20491937E+03</pdfrwt>
<totfact> 0.76095910E+04</totfact>
</mgrwt>
<rwgt>
<wgt id='1'> +6.4716170e+02 </wgt>
<wgt id='2'> +5.8122761e+02 </wgt>
<wgt id='3'> +5.0481800e+02 </wgt>
<wgt id='4'> +6.4716170e+02 </wgt>
<wgt id='5'> +5.0413216e+02 </wgt>
<wgt id='6'> +6.1746910e+02 </wgt>
<wgt id='7'> +5.4942015e+02 </wgt>
<wgt id='8'> +4.7375331e+02 </wgt>
<wgt id='9'> +6.1746910e+02 </wgt>
<wgt id='10'> +4.7310641e+02 </wgt>
<wgt id='11'> +5.7947227e+02 </wgt>
<wgt id='12'> +5.1550042e+02 </wgt>
<wgt id='13'> +4.4441534e+02 </wgt>
<wgt id='14'> +5.7947227e+02 </wgt>
<wgt id='15'> +4.4380829e+02 </wgt>
<wgt id='16'> +5.2909347e+02 </wgt>
<wgt id='17'> +4.8268457e+02 </wgt>
<wgt id='18'> +4.2564418e+02 </wgt>
<wgt id='19'> +5.2909347e+02 </wgt>
<wgt id='20'> +4.2510081e+02 </wgt>
<wgt id='21'> +4.5626984e+02 </wgt>
<wgt id='22'> +3.9945156e+02 </wgt>
<wgt id='23'> +5.0481800e+02 </wgt>
<wgt id='24'> +3.9893888e+02 </wgt>
<wgt id='25'> +4.7375331e+02 </wgt>
<wgt id='26'> +4.2810096e+02 </wgt>
<wgt id='27'> +3.7471485e+02 </wgt>
<wgt id='28'> +4.7375331e+02 </wgt>
<wgt id='29'> +3.7423374e+02 </wgt>
<wgt id='30'> +4.4611238e+02 </wgt>
<wgt id='31'> +4.0935150e+02 </wgt>
<wgt id='32'> +3.6368031e+02 </wgt>
<wgt id='33'> +4.4611238e+02 </wgt>
<wgt id='34'> +3.6324161e+02 </wgt>
<wgt id='35'> +4.2564418e+02 </wgt>
<wgt id='36'> +3.8694990e+02 </wgt>
<wgt id='37'> +3.4130073e+02 </wgt>
<wgt id='38'> +4.2564418e+02 </wgt>
<wgt id='39'> +3.4088667e+02 </wgt>
<wgt id='40'> +3.9945156e+02 </wgt>
<wgt id='41'> +3.6306064e+02 </wgt>
<wgt id='42'> +3.2016511e+02 </wgt>
<wgt id='43'> +3.9945156e+02 </wgt>
<wgt id='44'> +3.1977654e+02 </wgt>
<wgt id='45'> +5.0481800e+02 </wgt>
<wgt id='46'> +5.0959955e+02 </wgt>
<wgt id='47'> +5.2018172e+02 </wgt>
<wgt id='48'> +5.0713183e+02 </wgt>
<wgt id='49'> +5.0066888e+02 </wgt>
<wgt id='50'> +5.8901306e+02 </wgt>
<wgt id='51'> +4.9426940e+02 </wgt>
<wgt id='52'> +5.0356533e+02 </wgt>
<wgt id='53'> +5.0430129e+02 </wgt>
<wgt id='54'> +5.0973868e+02 </wgt>
<wgt id='55'> +4.6670878e+02 </wgt>
<wgt id='56'> +4.6709645e+02 </wgt>
<wgt id='57'> +4.9970706e+02 </wgt>
<wgt id='58'> +5.0273256e+02 </wgt>
<wgt id='59'> +5.1063488e+02 </wgt>
<wgt id='60'> +4.9538759e+02 </wgt>
<wgt id='61'> +4.6658209e+02 </wgt>
<wgt id='62'> +4.9697737e+02 </wgt>
<wgt id='63'> +5.0592760e+02 </wgt>
<wgt id='64'> +4.9786285e+02 </wgt>
<wgt id='65'> +5.7366497e+02 </wgt>
<wgt id='66'> +4.9461117e+02 </wgt>
<wgt id='67'> +5.0855255e+02 </wgt>
<wgt id='68'> +5.4709073e+02 </wgt>
<wgt id='69'> +4.9685730e+02 </wgt>
<wgt id='70'> +4.9794637e+02 </wgt>
<wgt id='71'> +5.1228700e+02 </wgt>
<wgt id='72'> +4.9094987e+02 </wgt>
<wgt id='73'> +4.9481318e+02 </wgt>
<wgt id='74'> +5.2540627e+02 </wgt>
<wgt id='75'> +5.1533923e+02 </wgt>
<wgt id='76'> +4.9519354e+02 </wgt>
<wgt id='77'> +4.9137292e+02 </wgt>
<wgt id='78'> +4.9462182e+02 </wgt>
<wgt id='79'> +4.9215795e+02 </wgt>
<wgt id='80'> +4.9623317e+02 </wgt>
<wgt id='81'> +4.9622010e+02 </wgt>
<wgt id='82'> +5.0780641e+02 </wgt>
<wgt id='83'> +5.1174801e+02 </wgt>
<wgt id='84'> +5.4547826e+02 </wgt>
<wgt id='85'> +5.2156836e+02 </wgt>
<wgt id='86'> +5.0372367e+02 </wgt>
<wgt id='87'> +5.0645873e+02 </wgt>
<wgt id='88'> +5.0899293e+02 </wgt>
<wgt id='89'> +5.1386462e+02 </wgt>
<wgt id='90'> +5.1289938e+02 </wgt>
<wgt id='91'> +5.2636299e+02 </wgt>
<wgt id='92'> +4.6669549e+02 </wgt>
<wgt id='93'> +4.9922818e+02 </wgt>
<wgt id='94'> +4.9773669e+02 </wgt>
<wgt id='95'> +4.9251299e+02 </wgt>
<wgt id='96'> +5.4004257e+02 </wgt>
<wgt id='97'> +5.0620518e+02 </wgt>
<wgt id='98'> +4.8807503e+02 </wgt>
<wgt id='99'> +4.8577165e+02 </wgt>
<wgt id='100'> +4.8807960e+02 </wgt>
<wgt id='101'> +5.4128448e+02 </wgt>
<wgt id='102'> +5.0363329e+02 </wgt>
<wgt id='103'> +5.4389174e+02 </wgt>
<wgt id='104'> +5.0562822e+02 </wgt>
<wgt id='105'> +5.2312551e+02 </wgt>
<wgt id='106'> +4.6567778e+02 </wgt>
<wgt id='107'> +4.9163530e+02 </wgt>
<wgt id='108'> +4.5193248e+02 </wgt>
<wgt id='109'> +4.7669321e+02 </wgt>
<wgt id='110'> +5.0375031e+02 </wgt>
<wgt id='111'> +4.9219832e+02 </wgt>
<wgt id='112'> +4.8074301e+02 </wgt>
<wgt id='113'> +4.6795866e+02 </wgt>
<wgt id='114'> +4.9943981e+02 </wgt>
<wgt id='115'> +4.9159388e+02 </wgt>
<wgt id='116'> +5.1165598e+02 </wgt>
<wgt id='117'> +5.0487058e+02 </wgt>
<wgt id='118'> +5.2183259e+02 </wgt>
<wgt id='119'> +4.9018996e+02 </wgt>
<wgt id='120'> +4.9627959e+02 </wgt>
<wgt id='121'> +4.9423901e+02 </wgt>
<wgt id='122'> +4.9949256e+02 </wgt>
<wgt id='123'> +5.0858030e+02 </wgt>
<wgt id='124'> +5.4595530e+02 </wgt>
<wgt id='125'> +5.4905241e+02 </wgt>
<wgt id='126'> +5.2077770e+02 </wgt>
<wgt id='127'> +5.1795465e+02 </wgt>
<wgt id='128'> +4.6470617e+02 </wgt>
<wgt id='129'> +5.6600971e+02 </wgt>
<wgt id='130'> +5.0237153e+02 </wgt>
<wgt id='131'> +5.3203612e+02 </wgt>
<wgt id='132'> +5.1513209e+02 </wgt>
<wgt id='133'> +5.0921354e+02 </wgt>
<wgt id='134'> +4.8433759e+02 </wgt>
<wgt id='135'> +5.1442490e+02 </wgt>
<wgt id='136'> +5.0297837e+02 </wgt>
<wgt id='137'> +4.7984228e+02 </wgt>
<wgt id='138'> +4.6610150e+02 </wgt>
<wgt id='139'> +5.1676873e+02 </wgt>
<wgt id='140'> +5.2729796e+02 </wgt>
<wgt id='141'> +5.0771927e+02 </wgt>
<wgt id='142'> +4.9173437e+02 </wgt>
<wgt id='143'> +5.0833825e+02 </wgt>
<wgt id='144'> +5.0089794e+02 </wgt>
<wgt id='145'> +5.0406749e+02 </wgt>
</rwgt>
</event>
<event>
 4      1 +5.0481800e+02 1.94747700e+02 7.54677100e-03 1.15424800e-01
       21 -1    0    0  503  502 +0.0000000000e+00 +0.0000000000e+00 +5.2664602549e+02 5.2664602549e+02 0.0000000000e+00 0.0000e+00 1.0000e+00
       21 -1    0    0  501  503 -0.0000000000e+00 -0.0000000000e+00 -7.2733808905e+01 7.2733808905e+01 0.0000000000e+00 0.0000e+00 -1.0000e+00
        6  1    1    2  501    0 +8.3011092423e+01 -3.3269044462e+01 +2.5673874009e+02 3.2224439707e+02 1.7300000000e+02 0.0000e+00 1.0000e+00
       -6  1    1    2    0  502 -8.3011092423e+01 +3.3269044462e+01 +1.9717347650e+02 2.7713543732e+02 1.7300000000e+02 0.0000e+00 -1.0000e+00
<mgrwt>
<rscale>  2 0.19474771E+03</rscale>
<asrwt>0</asrwt>
<pdfrwt beam="1">  1       21 0.81022463E-01 0.19474771E+03</pdfrwt>
<pdfrwt beam="2">  1       21 0.11189817E-01 0.19474771E+03</pdfrwt>
<totfact> 0.88765097E+04</totfact>
</mgrwt>
<rwgt>
<wgt id='1'> +6.4652837e+02 </wgt>
<wgt id='2'> +6.1777205e+02 </wgt>
<wgt id='3'> +5.0481800e+02 </wgt>
<wgt id='4'> +6.4652837e+02 </wgt>
<wgt id='5'> +5.0395106e+02 </wgt>
<wgt id='6'> +6.1914314e+02 </wgt>
<wgt id='7'> +5.8920390e+02 </wgt>
<wgt id='8'> +4.7471604e+02 </wgt>
<wgt id='9'> +6.1914314e+02 </wgt>
<wgt id='10'> +4.7388449e+02 </wgt>
<wgt id='11'> +5.8222406e+02 </wgt>
<wgt id='12'> +5.5391757e+02 </wgt>
<wgt id='13'> +4.4602705e+02 </wgt>
<wgt id='14'> +5.8222406e+02 </wgt>
<wgt id='15'> +4.4524463e+02 </wgt>
<wgt id='16'> +5.2714653e+02 </wgt>
<wgt id='17'> +5.0715115e+02 </wgt>
<wgt id='18'> +4.2513267e+02 </wgt>
<wgt id='19'> +5.2714653e+02 </wgt>
<wgt id='20'> +4.2445783e+02 </wgt>
<wgt id='21'> +4.8369853e+02 </wgt>
<wgt id='22'> +3.9978230e+02 </wgt>
<wgt id='23'> +5.0481800e+02 </wgt>
<wgt id='24'> +3.9913396e+02 </wgt>
<wgt id='25'> +4.7471604e+02 </wgt>
<wgt id='26'> +4.5473072e+02 </wgt>
<wgt id='27'> +3.7562185e+02 </wgt>
<wgt id='28'> +4.7471604e+02 </wgt>
<wgt id='29'> +3.7501175e+02 </wgt>
<wgt id='30'> +4.4393665e+02 </wgt>
<wgt id='31'> +4.2821872e+02 </wgt>
<wgt id='32'> +3.6290961e+02 </wgt>
<wgt id='33'> +4.4393665e+02 </wgt>
<wgt id='34'> +3.6236606e+02 </wgt>
<wgt id='35'> +4.2513267e+02 </wgt>
<wgt id='36'> +4.0841625e+02 </wgt>
<wgt id='37'> +3.4126955e+02 </wgt>
<wgt id='38'> +4.2513267e+02 </wgt>
<wgt id='39'> +3.4074669e+02 </wgt>
<wgt id='40'> +3.9978230e+02 </wgt>
<wgt id='41'> +3.8395695e+02 </wgt>
<wgt id='42'> +3.2064526e+02 </wgt>
<wgt id='43'> +3.9978230e+02 </wgt>
<wgt id='44'> +3.2015320e+02 </wgt>
<wgt id='45'> +5.0481800e+02 </wgt>
<wgt id='46'> +5.1024565e+02 </wgt>
<wgt id='47'> +5.1914173e+02 </wgt>
<wgt id='48'> +5.0694556e+02 </wgt>
<wgt id='49'> +5.0008343e+02 </wgt>
<wgt id='50'> +5.8739894e+02 </wgt>
<wgt id='51'> +4.9406913e+02 </wgt>
<wgt id='52'> +5.0387408e+02 </wgt>
<wgt id='53'> +5.0303683e+02 </wgt>
<wgt id='54'> +5.1026024e+02 </wgt>
<wgt id='55'> +4.7047521e+02 </wgt>
<wgt id='56'> +4.6715494e+02 </wgt>
<wgt id='57'> +5.0162725e+02 </wgt>
<wgt id='58'> +5.0205947e+02 </wgt>
<wgt id='59'> +5.1328455e+02 </wgt>
<wgt id='60'> +4.9787663e+02 </wgt>
<wgt id='61'> +4.6201525e+02 </wgt>
<wgt id='62'> +4.9661021e+02 </wgt>
<wgt id='63'> +5.0619988e+02 </wgt>
<wgt id='64'> +4.9795336e+02 </wgt>
<wgt id='65'> +5.6810053e+02 </wgt>
<wgt id='66'> +4.9488333e+02 </wgt>
<wgt id='67'> +5.0833295e+02 </wgt>
<wgt id='68'> +5.4797126e+02 </wgt>
<wgt id='69'> +4.9710656e+02 </wgt>
<wgt id='70'> +4.9844962e+02 </wgt>
<wgt id='71'> +5.1166084e+02 </wgt>
<wgt id='72'> +4.9186290e+02 </wgt>
<wgt id='73'> +4.9437613e+02 </wgt>
<wgt id='74'> +5.2625297e+02 </wgt>
<wgt id='75'> +5.1501368e+02 </wgt>
<wgt id='76'> +4.9640749e+02 </wgt>
<wgt id='77'> +4.9232210e+02 </wgt>
<wgt id='78'> +4.9268381e+02 </wgt>
<wgt id='79'> +4.9383419e+02 </wgt>
<wgt id='80'> +4.9541693e+02 </wgt>
<wgt id='81'> +4.9659443e+02 </wgt>
<wgt id='82'> +5.0567887e+02 </wgt>
<wgt id='83'> +5.1051054e+02 </wgt>
<wgt id='84'> +5.4285964e+02 </wgt>
<wgt id='85'> +5.1940936e+02 </wgt>
<wgt id='86'> +5.0393015e+02 </wgt>
<wgt id='87'> +5.0670945e+02 </wgt>
<wgt id='88'> +5.0760933e+02 </wgt>
<wgt id='89'> +5.1307562e+02 </wgt>
<wgt id='90'> +5.1326334e+02 </wgt>
<wgt id='91'> +5.2392163e+02 </wgt>
<wgt id='92'> +4.6796018e+02 </wgt>
<wgt id='93'> +4.9976908e+02 </wgt>
<wgt id='94'> +4.9700284e+02 </wgt>
<wgt id='95'> +4.9462152e+02 </wgt>
<wgt id='96'> +5.3814482e+02 </wgt>
<wgt id='97'> +5.0489933e+02 </wgt>
<wgt id='98'> +4.8938074e+02 </wgt>
<wgt id='99'> +4.8507695e+02 </wgt>
<wgt id='100'> +4.8595775e+02 </wgt>
<wgt id='101'> +5.4297014e+02 </wgt>
<wgt id='102'> +5.0595680e+02 </wgt>
<wgt id='103'> +5.4254309e+02 </wgt>
<wgt id='104'> +5.0563668e+02 </wgt>
<wgt id='105'> +5.2305715e+02 </wgt>
<wgt id='106'> +4.6672602e+02 </wgt>
<wgt id='107'> +4.9087058e+02 </wgt>
<wgt id='108'> +4.5255578e+02 </wgt>
<wgt id='109'> +4.7781999e+02 </wgt>
<wgt id='110'> +5.0357899e+02 </wgt>
<wgt id='111'> +4.9249611e+02 </wgt>
<wgt id='112'> +4.8110060e+02 </wgt>
<wgt id='113'> +4.6944028e+02 </wgt>
<wgt id='114'> +4.9930317e+02 </wgt>
<wgt id='115'> +4.8891664e+02 </wgt>
<wgt id='116'> +5.1265754e+02 </wgt>
<wgt id='117'> +5.0353664e+02 </wgt>
<wgt id='118'> +5.2224053e+02 </wgt>
<wgt id='119'> +4.9169511e+02 </wgt>
<wgt id='120'> +4.9536428e+02 </wgt>
<wgt id='121'> +4.9547346e+02 </wgt>
<wgt id='122'> +4.9980341e+02 </wgt>
<wgt id='123'> +5.0766134e+02 </wgt>
<wgt id='124'> +5.4676699e+02 </wgt>
<wgt id='125'> +5.5046312e+02 </wgt>
<wgt id='126'> +5.1974210e+02 </wgt>
<wgt id='127'> +5.1732311e+02 </wgt>
<wgt id='128'> +4.6407379e+02 </wgt>
<wgt id='129'> +5.6443468e+02 </wgt>
<wgt id='130'> +5.0068610e+02 </wgt>
<wgt id='131'> +5.3010174e+02 </wgt>
<wgt id='132'> +5.1833350e+02 </wgt>
<wgt id='133'> +5.1060137e+02 </wgt>
<wgt id='134'> +4.8645581e+02 </wgt>
<wgt id='135'> +5.1369916e+02 </wgt>
<wgt id='136'> +5.0711599e+02 </wgt>
<wgt id='137'> +4.8054824e+02 </wgt>
<wgt id='138'> +4.6699157e+02 </wgt>
<wgt id='139'> +5.1718175e+02 </wgt>
<wgt id='140'> +5.2545299e+02 </wgt>
<wgt id='141'> +5.0837027e+02 </wgt>
<wgt id='142'> +4.8880672e+02 </wgt>
<wgt id='143'> +5.0995301e+02 </wgt>
<wgt id='144'> +5.0048166e+02 </wgt>
<wgt id='145'> +5.0335976e+02 </wgt>
</rwgt>
</event>
<event>
 4      1 +5.0481800e+02 2.21557400e+02 7.54677100e-03 1.13272700e-01
       21 -1    0    0  501  502 +0.0000000000e+00 +0.0000000000e+00 +2.9606563413e+02 2.9606563413e+02 0.0000000000e+00 0.0000e+00 1.0000e+00
       21 -1    0    0  502  503 -0.0000000000e+00 -0.0000000000e+00 -4.5423427908e+02 4.5423427908e+02 0.0000000000e+00 0.0000e+00 1.0000e+00
        6  1    1    2  501    0 +4.9164573971e+01 -1.2938906509e+02 +2.1985866877e+02 3.1213061326e+02 1.7300000000e+02 0.0000e+00 1.0000e+00
       -6  1    1    2    0  503 -4.9164573971e+01 +1.2938906509e+02 -3.7802731372e+02 4.3816929995e+02 1.7300000000e+02 0.0000e+00 1.0000e+00
<mgrwt>
<rscale>  2 0.22155741E+03</rscale>
<asrwt>0</asrwt>
<pdfrwt beam="1">  1       21 0.45548559E-01 0.22155741E+03</pdfrwt>
<pdfrwt beam="2">  1       21 0.69882197E-01 0.22155741E+03</pdfrwt>
<totfact> 0.84272919E+03</totfact>
</mgrwt>
<rwgt>
<wgt id='1'> +6.7127128e+02 </wgt>
<wgt id='2'> +5.7792635e+02 </wgt>
<wgt id='3'> +5.0481800e+02 </wgt>
<wgt id='4'> +6.7127128e+02 </wgt>
<wgt id='5'> +4.1520020e+02 </wgt>
<wgt id='6'> +6.1476294e+02 </wgt>
<wgt id='7'> +5.2489891e+02 </wgt>
<wgt id='8'> +4.5795910e+02 </wgt>
<wgt id='9'> +6.1476294e+02 </wgt>
<wgt id='10'> +3.7751220e+02 </wgt>
<wgt id='11'> +5.5769859e+02 </wgt>
<wgt id='12'> +4.7694069e+02 </wgt>
<wgt id='13'> +4.1675114e+02 </wgt>
<wgt id='14'> +5.5769859e+02 </wgt>
<wgt id='15'> +3.4435864e+02 </wgt>
<wgt id='16'> +5.5122032e+02 </wgt>
<wgt id='17'> +4.8329561e+02 </wgt>
<wgt id='18'> +4.2628767e+02 </wgt>
<wgt id='19'> +5.5122032e+02 </wgt>
<wgt id='20'> +3.5404332e+02 </wgt>
<wgt id='21'> +4.3895098e+02 </wgt>
<wgt id='22'> +3.8671822e+02 </wgt>
<wgt id='23'> +5.0481800e+02 </wgt>
<wgt id='24'> +3.2190657e+02 </wgt>
<wgt id='25'> +4.5795910e+02 </wgt>
<wgt id='26'> +3.9884552e+02 </wgt>
<wgt id='27'> +3.5192063e+02 </wgt>
<wgt id='28'> +4.5795910e+02 </wgt>
<wgt id='29'> +2.9363636e+02 </wgt>
<wgt id='30'> +4.6547156e+02 </wgt>
<wgt id='31'> +4.1098886e+02 </wgt>
<wgt id='32'> +3.6473336e+02 </wgt>
<wgt id='33'> +4.6547156e+02 </wgt>
<wgt id='34'> +3.0546780e+02 </wgt>
<wgt id='35'> +4.2628767e+02 </wgt>
<wgt id='36'> +3.7327871e+02 </wgt>
<wgt id='37'> +3.3087759e+02 </wgt>
<wgt id='38'> +4.2628767e+02 </wgt>
<wgt id='39'> +2.7774028e+02 </wgt>
<wgt id='40'> +3.8671822e+02 </wgt>
<wgt id='41'> +3.3917351e+02 </wgt>
<wgt id='42'> +3.0110464e+02 </wgt>
<wgt id='43'> +3.8671822e+02 </wgt>
<wgt id='44'> +2.5334881e+02 </wgt>
<wgt id='45'> +5.0481800e+02 </wgt>
<wgt id='46'> +5.1864944e+02 </wgt>
<wgt id='47'> +5.2953526e+02 </wgt>
<wgt id='48'> +5.1429207e+02 </wgt>
<wgt id='49'> +5.0120213e+02 </wgt>
<wgt id='50'> +6.2748568e+02 </wgt>
<wgt id='51'> +4.9428633e+02 </wgt>
<wgt id='52'> +5.0517380e+02 </wgt>
<wgt id='53'> +4.9944842e+02 </wgt>
<wgt id='54'> +5.0919617e+02 </wgt>
<wgt id='55'> +4.5351952e+02 </wgt>
<wgt id='56'> +4.5417913e+02 </wgt>
<wgt id='57'> +4.9435898e+02 </wgt>
<wgt id='58'> +4.9447018e+02 </wgt>
<wgt id='59'> +5.1552416e+02 </wgt>
<wgt id='60'> +4.9897634e+02 </wgt>
<wgt id='61'> +4.5592878e+02 </wgt>
<wgt id='62'> +4.9949618e+02 </wgt>
<wgt id='63'> +5.0554689e+02 </wgt>
<wgt id='64'> +4.8847004e+02 </wgt>
<wgt id='65'> +5.8920622e+02 </wgt>
<wgt id='66'> +4.9546251e+02 </wgt>
<wgt id='67'> +5.0893623e+02 </wgt>
<wgt id='68'> +5.5973068e+02 </wgt>
<wgt id='69'> +5.0920339e+02 </wgt>
<wgt id='70'> +4.9427957e+02 </wgt>
<wgt id='71'> +5.1294869e+02 </wgt>
<wgt id='72'> +4.6901283e+02 </wgt>
<wgt id='73'> +4.9022799e+02 </wgt>
<wgt id='74'> +5.3630002e+02 </wgt>
<wgt id='75'> +5.1978517e+02 </wgt>
<wgt id='76'> +4.8860619e+02 </wgt>
<wgt id='77'> +4.9470026e+02 </wgt>
<wgt id='78'> +4.8722331e+02 </wgt>
<wgt id='79'> +4.9402170e+02 </wgt>
<wgt id='80'> +4.9325615e+02 </wgt>
<wgt id='81'> +4.9057999e+02 </wgt>
<wgt id='82'> +5.0701704e+02 </wgt>
<wgt id='83'> +5.2072743e+02 </wgt>
<wgt id='84'> +5.5955555e+02 </wgt>
<wgt id='85'> +5.2810341e+02 </wgt>
<wgt id='86'> +5.1003308e+02 </wgt>
<wgt id='87'> +5.0980581e+02 </wgt>
<wgt id='88'> +5.1562230e+02 </wgt>
<wgt id='89'> +5.2120140e+02 </wgt>
<wgt id='90'> +5.1581598e+02 </wgt>
<wgt id='91'> +5.2986497e+02 </wgt>
<wgt id='92'> +4.4215201e+02 </wgt>
<wgt id='93'> +5.0377405e+02 </wgt>
<wgt id='94'> +4.9113897e+02 </wgt>
<wgt id='95'> +4.8198925e+02 </wgt>
<wgt id='96'> +5.6098666e+02 </wgt>
<wgt id='97'> +5.0285740e+02 </wgt>
<wgt id='98'> +4.8627631e+02 </wgt>
<wgt id='99'> +4.8201887e+02 </wgt>
<wgt id='100'> +4.7441560e+02 </wgt>
<wgt id='101'> +5.6141020e+02 </wgt>
<wgt id='102'> +5.1667391e+02 </wgt>
<wgt id='103'> +5.5820446e+02 </wgt>
<wgt id='104'> +5.1161746e+02 </wgt>
<wgt id='105'> +5.1654941e+02 </wgt>
<wgt id='106'> +4.4412710e+02 </wgt>
<wgt id='107'> +4.7559316e+02 </wgt>
<wgt id='108'> +4.3136364e+02 </wgt>
<wgt id='109'> +4.6241162e+02 </wgt>
<wgt id='110'> +5.0040551e+02 </wgt>
<wgt id='111'> +4.8443805e+02 </wgt>
<wgt id='112'> +4.6953647e+02 </wgt>
<wgt id='113'> +4.5446853e+02 </wgt>
<wgt id='114'> +4.8290540e+02 </wgt>
<wgt id='115'> +4.7992959e+02 </wgt>
<wgt id='116'> +5.2602505e+02 </wgt>
<wgt id='117'> +5.0190656e+02 </wgt>
<wgt id='118'> +5.3618844e+02 </wgt>
<wgt id='119'> +4.8079604e+02 </wgt>
<wgt id='120'> +4.8823949e+02 </wgt>
<wgt id='121'> +4.8545967e+02 </wgt>
<wgt id='122'> +4.9618859e+02 </wgt>
<wgt id='123'> +5.1502485e+02 </wgt>
<wgt id='124'> +5.6483079e+02 </wgt>
<wgt id='125'> +5.6515447e+02 </wgt>
<wgt id='126'> +5.3090002e+02 </wgt>
<wgt id='127'> +5.2566482e+02 </wgt>
<wgt id='128'> +4.5507527e+02 </wgt>
<wgt id='129'> +5.7839332e+02 </wgt>
<wgt id='130'> +5.0971337e+02 </wgt>
<wgt id='131'> +5.3708843e+02 </wgt>
<wgt id='132'> +5.1883374e+02 </wgt>
<wgt id='133'> +5.1798918e+02 </wgt>
<wgt id='134'> +4.8030341e+02 </wgt>
<wgt id='135'> +5.1661616e+02 </wgt>
<wgt id='136'> +5.0193768e+02 </wgt>
<wgt id='137'> +4.8155202e+02 </wgt>
<wgt id='138'> +4.7577566e+02 </wgt>
<wgt id='139'> +5.2267599e+02 </wgt>
<wgt id='140'> +5.2637987e+02 </wgt>
<wgt id='141'> +5.1029572e+02 </wgt>
<wgt id='142'> +4.8401215e+02 </wgt>
<wgt id='143'> +5.1023087e+02 </wgt>
<wgt id='144'> +4.9318700e+02 </wgt>
<wgt id='145'> +5.0538180e+02 </wgt>
</rwgt>
</event>
<event>
 4      1 +5.0481800e+02 1.95194700e+02 7.54677100e-03 1.15385800e-01
       -1 -1    0    0    0  501 -0.0000000000e+00 +0.0000000000e+00 +1.8541203592e+02 1.8541203592e+02 0.0000000000e+00 0.0000e+00 1.0000e+00
        1 -1    0    0  502    0 +0.0000000000e+00 -0.0000000000e+00 -2.0949640196e+02 2.0949640196e+02 0.0000000000e+00 0.0000e+00 -1.0000e+00
        6  1    1    2  502    0 +7.1464924342e+01 -5.5360086222e+01 -3.9335967038e+01 1.9911879083e+02 1.7300000000e+02 0.0000e+00 -1.0000e+00
       -6  1    1    2    0  501 -7.1464924342e+01 +5.5360086222e+01 +1.5251600996e+01 1.9578964705e+02 1.7300000000e+02 0.0000e+00 1.0000e+00
<mgrwt>
<rscale>  2 0.19519471E+03</rscale>
<asrwt>0</asrwt>
<pdfrwt beam="2">  1        1 0.32230216E-01 0.19519471E+03</pdfrwt>
<pdfrwt beam="1">  1       -1 0.28524929E-01 0.19519471E+03</pdfrwt>
<totfact> 0.15272413E+03</totfact>
</mgrwt>
<rwgt>
<wgt id='1'> +6.0667153e+02 </wgt>
<wgt id='2'> +5.0954496e+02 </wgt>
<wgt id='3'> +5.0481800e+02 </wgt>
<wgt id='4'> +6.0667153e+02 </wgt>
<wgt id='5'> +5.0365367e+02 </wgt>
<wgt id='6'> +6.1907198e+02 </wgt>
<wgt id='7'> +5.1644058e+02 </wgt>
<wgt id='8'> +5.1146659e+02 </wgt>
<wgt id='9'> +6.1907198e+02 </wgt>
<wgt id='10'> +5.1024164e+02 </wgt>
<wgt id='11'> +6.2722532e+02 </wgt>
<wgt id='12'> +5.2046844e+02 </wgt>
<wgt id='13'> +5.1531535e+02 </wgt>
<wgt id='14'> +6.2722532e+02 </wgt>
<wgt id='15'> +5.1404640e+02 </wgt>
<wgt id='16'> +4.9470614e+02 </wgt>
<wgt id='17'> +4.2867653e+02 </wgt>
<wgt id='18'> +4.2515841e+02 </wgt>
<wgt id='19'> +4.9470614e+02 </wgt>
<wgt id='20'> +4.2428275e+02 </wgt>
<wgt id='21'> +4.3447776e+02 </wgt>
<wgt id='22'> +4.3075786e+02 </wgt>
<wgt id='23'> +5.0481800e+02 </wgt>
<wgt id='24'> +4.2983252e+02 </wgt>
<wgt id='25'> +5.1146659e+02 </wgt>
<wgt id='26'> +4.3786637e+02 </wgt>
<wgt id='27'> +4.3399929e+02 </wgt>
<wgt id='28'> +5.1146659e+02 </wgt>
<wgt id='29'> +4.3303768e+02 </wgt>
<wgt id='30'> +4.1664219e+02 </wgt>
<wgt id='31'> +3.6569461e+02 </wgt>
<wgt id='32'> +3.6294663e+02 </wgt>
<wgt id='33'> +4.1664219e+02 </wgt>
<wgt id='34'> +3.6226227e+02 </wgt>
<wgt id='35'> +4.2515841e+02 </wgt>
<wgt id='36'> +3.7064352e+02 </wgt>
<wgt id='37'> +3.6772674e+02 </wgt>
<wgt id='38'> +4.2515841e+02 </wgt>
<wgt id='39'> +3.6700079e+02 </wgt>
<wgt id='40'> +4.3075786e+02 </wgt>
<wgt id='41'> +3.7353427e+02 </wgt>
<wgt id='42'> +3.7049386e+02 </wgt>
<wgt id='43'> +4.3075786e+02 </wgt>
<wgt id='44'> +3.6973743e+02 </wgt>
<wgt id='45'> +5.0481800e+02 </wgt>
<wgt id='46'> +5.1718299e+02 </wgt>
<wgt id='47'> +5.0614139e+02 </wgt>
<wgt id='48'> +4.8278198e+02 </wgt>
<wgt id='49'> +4.8247473e+02 </wgt>
<wgt id='50'> +4.6258526e+02 </wgt>
<wgt id='51'> +4.8834470e+02 </wgt>
<wgt id='52'> +5.3564635e+02 </wgt>
<wgt id='53'> +5.2010919e+02 </wgt>
<wgt id='54'> +4.9808712e+02 </wgt>
<wgt id='55'> +5.0036216e+02 </wgt>
<wgt id='56'> +5.6234506e+02 </wgt>
<wgt id='57'> +4.6013945e+02 </wgt>
<wgt id='58'> +5.2949727e+02 </wgt>
<wgt id='59'> +4.4493147e+02 </wgt>
<wgt id='60'> +5.0296881e+02 </wgt>
<wgt id='61'> +5.2160471e+02 </wgt>
<wgt id='62'> +5.3514109e+02 </wgt>
<wgt id='63'> +5.4075816e+02 </wgt>
<wgt id='64'> +5.0930356e+02 </wgt>
<wgt id='65'> +4.8481255e+02 </wgt>
<wgt id='66'> +4.8738320e+02 </wgt>
<wgt id='67'> +5.3725077e+02 </wgt>
<wgt id='68'> +4.4523476e+02 </wgt>
<wgt id='69'> +4.8529130e+02 </wgt>
<wgt id='70'> +5.1932011e+02 </wgt>
<wgt id='71'> +4.9800699e+02 </wgt>
<wgt id='72'> +4.8244297e+02 </wgt>
<wgt id='73'> +5.2190341e+02 </wgt>
<wgt id='74'> +4.6921440e+02 </wgt>
<wgt id='75'> +5.1008752e+02 </wgt>
<wgt id='76'> +5.2679850e+02 </wgt>
<wgt id='77'> +5.2983898e+02 </wgt>
<wgt id='78'> +5.0569092e+02 </wgt>
<wgt id='79'> +5.3095360e+02 </wgt>
<wgt id='80'> +5.4715906e+02 </wgt>
<wgt id='81'> +5.1987599e+02 </wgt>
<wgt id='82'> +4.8306373e+02 </wgt>
<wgt id='83'> +4.6033373e+02 </wgt>
<wgt id='84'> +4.9816563e+02 </wgt>
<wgt id='85'> +5.0952447e+02 </wgt>
<wgt id='86'> +5.3313484e+02 </wgt>
<wgt id='87'> +5.2574435e+02 </wgt>
<wgt id='88'> +4.9700552e+02 </wgt>
<wgt id='89'> +5.4090058e+02 </wgt>
<wgt id='90'> +5.6220882e+02 </wgt>
<wgt id='91'> +4.6479538e+02 </wgt>
<wgt id='92'> +5.0867545e+02 </wgt>
<wgt id='93'> +5.3350719e+02 </wgt>
<wgt id='94'> +5.5080317e+02 </wgt>
<wgt id='95'> +4.9966101e+02 </wgt>
<wgt id='96'> +4.8789503e+02 </wgt>
<wgt id='97'> +5.2923529e+02 </wgt>
<wgt id='98'> +5.1440575e+02 </wgt>
<wgt id='99'> +5.6134382e+02 </wgt>
<wgt id='100'> +4.8829718e+02 </wgt>
<wgt id='101'> +4.4464863e+02 </wgt>
<wgt id='102'> +4.9650080e+02 </wgt>
<wgt id='103'> +4.7808284e+02 </wgt>
<wgt id='104'> +4.6407187e+02 </wgt>
<wgt id='105'> +4.9340902e+02 </wgt>
<wgt id='106'> +5.2155927e+02 </wgt>
<wgt id='107'> +4.8419609e+02 </wgt>
<wgt id='108'> +5.4712574e+02 </wgt>
<wgt id='109'> +4.9855319e+02 </wgt>
<wgt id='110'> +5.4393969e+02 </wgt>
<wgt id='111'> +5.1190374e+02 </wgt>
<wgt id='112'> +4.9932653e+02 </wgt>
<wgt id='113'> +5.1364373e+02 </wgt>
<wgt id='114'> +4.8684284e+02 </wgt>
<wgt id='115'> +5.0750018e+02 </wgt>
<wgt id='116'> +4.6748701e+02 </wgt>
<wgt id='117'> +4.9010985e+02 </wgt>
<wgt id='118'> +4.8248574e+02 </wgt>
<wgt id='119'> +5.1550368e+02 </wgt>
<wgt id='120'> +5.0198647e+02 </wgt>
<wgt id='121'> +4.8237342e+02 </wgt>
<wgt id='122'> +5.0221338e+02 </wgt>
<wgt id='123'> +5.3666690e+02 </wgt>
<wgt id='124'> +4.6395294e+02 </wgt>
<wgt id='125'> +4.4370030e+02 </wgt>
<wgt id='126'> +5.3246495e+02 </wgt>
<wgt id='127'> +5.2227858e+02 </wgt>
<wgt id='128'> +5.1547819e+02 </wgt>
<wgt id='129'> +4.5565840e+02 </wgt>
<wgt id='130'> +4.7560893e+02 </wgt>
<wgt id='131'> +5.1715823e+02 </wgt>
<wgt id='132'> +4.8335022e+02 </wgt>
<wgt id='133'> +5.4651585e+02 </wgt>
<wgt id='134'> +4.8693943e+02 </wgt>
<wgt id='135'> +4.5966511e+02 </wgt>
<wgt id='136'> +5.1855156e+02 </wgt>
<wgt id='137'> +5.0919284e+02 </wgt>
<wgt id='138'> +5.0867864e+02 </wgt>
<wgt id='139'> +5.2857009e+02 </wgt>
<wgt id='140'> +4.8674429e+02 </wgt>
<wgt id='141'> +5.0005960e+02 </wgt>
<wgt id='142'> +5.6671660e+02 </wgt>
<wgt id='143'> +5.1288172e+02 </wgt>
<wgt id='144'> +5.1172156e+02 </wgt>
<wgt id='145'> +5.1735329e+02 </wgt>
</rwgt>
</event>
<event>
 4      1 +5.0481800e+02 2.24559100e+02 7.54677100e-03 1.13052900e-01
       21 -1    0    0  503  502 +0.0000000000e+00 +0.0000000000e+00 +1.3707954481e+02 1.3707954481e+02 0.0000000000e+00 0.0000e+00 1.0000e+00
       21 -1    0    0  501  503 -0.0000000000e+00 -0.0000000000e+00 -3.9040739951e+02 3.9040739951e+02 0.0000000000e+00 0.0000e+00 1.0000e+00
        6  1    1    2  501    0 +1.3453908248e+02 -4.8959423290e+01 -1.9003939073e+02 2.9417980875e+02 1.7300000000e+02 0.0000e+00 1.0000e+00
       -6  1    1    2    0  502 -1.3453908248e+02 +4.8959423290e+01 -6.3288463966e+01 2.3330713558e+02 1.7300000000e+02 0.0000e+00 1.0000e+00
<mgrwt>
<rscale>  2 0.22455910E+03</rscale>
<asrwt>0</asrwt>
<pdfrwt beam="1">  1       21 0.21089161E-01 0.22455910E+03</pdfrwt>
<pdfrwt beam="2">  1       21 0.60062675E-01 0.22455910E+03</pdfrwt>
<totfact> 0.53241368E+04</totfact>
</mgrwt>
<rwgt>
<wgt id='1'> +6.4929255e+02 </wgt>
<wgt id='2'> +5.3049823e+02 </wgt>
<wgt id='3'> +5.0481800e+02 </wgt>
<wgt id='4'> +6.4929255e+02 </wgt>
<wgt id='5'> +4.9956743e+02 </wgt>
<wgt id='6'> +6.1430772e+02 </wgt>
<wgt id='7'> +4.9560068e+02 </wgt>
<wgt id='8'> +4.7157660e+02 </wgt>
<wgt id='9'> +6.1430772e+02 </wgt>
<wgt id='10'> +4.6668092e+02 </wgt>
<wgt id='11'> +5.7385660e+02 </wgt>
<wgt id='12'> +4.6300046e+02 </wgt>
<wgt id='13'> +4.4059847e+02 </wgt>
<wgt id='14'> +5.7385660e+02 </wgt>
<wgt id='15'> +4.3603488e+02 </wgt>
<wgt id='16'> +5.3356739e+02 </wgt>
<wgt id='17'> +4.4678674e+02 </wgt>
<wgt id='18'> +4.2639531e+02 </wgt>
<wgt id='19'> +5.3356739e+02 </wgt>
<wgt id='20'> +4.2220435e+02 </wgt>
<wgt id='21'> +4.1739594e+02 </wgt>
<wgt id='22'> +3.9831791e+02 </wgt>
<wgt id='23'> +5.0481800e+02 </wgt>
<wgt id='24'> +3.9441065e+02 </wgt>
<wgt id='25'> +4.7157660e+02 </wgt>
<wgt id='26'> +3.8993997e+02 </wgt>
<wgt id='27'> +3.7215219e+02 </wgt>
<wgt id='28'> +4.7157660e+02 </wgt>
<wgt id='29'> +3.6851046e+02 </wgt>
<wgt id='30'> +4.5067853e+02 </wgt>
<wgt id='31'> +3.8141040e+02 </wgt>
<wgt id='32'> +3.6491112e+02 </wgt>
<wgt id='33'> +4.5067853e+02 </wgt>
<wgt id='34'> +3.6151143e+02 </wgt>
<wgt id='35'> +4.2639531e+02 </wgt>
<wgt id='36'> +3.5632023e+02 </wgt>
<wgt id='37'> +3.4088234e+02 </wgt>
<wgt id='38'> +4.2639531e+02 </wgt>
<wgt id='39'> +3.3771315e+02 </wgt>
<wgt id='40'> +3.9831791e+02 </wgt>
<wgt id='41'> +3.3288177e+02 </wgt>
<wgt id='42'> +3.1848960e+02 </wgt>
<wgt id='43'> +3.9831791e+02 </wgt>
<wgt id='44'> +3.1553617e+02 </wgt>
<wgt id='45'> +5.0481800e+02 </wgt>
<wgt id='46'> +5.0803267e+02 </wgt>
<wgt id='47'> +5.2300628e+02 </wgt>
<wgt id='48'> +5.0762550e+02 </wgt>
<wgt id='49'> +5.0254033e+02 </wgt>
<wgt id='50'> +5.9364256e+02 </wgt>
<wgt id='51'> +4.9484897e+02 </wgt>
<wgt id='52'> +5.0273940e+02 </wgt>
<wgt id='53'> +5.0747352e+02 </wgt>
<wgt id='54'> +5.0833255e+02 </wgt>
<wgt id='55'> +4.5600185e+02 </wgt>
<wgt id='56'> +4.6708109e+02 </wgt>
<wgt id='57'> +4.9401040e+02 </wgt>
<wgt id='58'> +5.0466798e+02 </wgt>
<wgt id='59'> +5.0331986e+02 </wgt>
<wgt id='60'> +4.8916902e+02 </wgt>
<wgt id='61'> +4.8103081e+02 </wgt>
<wgt id='62'> +4.9813430e+02 </wgt>
<wgt id='63'> +5.0542164e+02 </wgt>
<wgt id='64'> +4.9771208e+02 </wgt>
<wgt id='65'> +5.8834827e+02 </wgt>
<wgt id='66'> +4.9388993e+02 </wgt>
<wgt id='67'> +5.0910377e+02 </wgt>
<wgt id='68'> +5.4461922e+02 </wgt>
<wgt id='69'> +4.9616601e+02 </wgt>
<wgt id='70'> +4.9659890e+02 </wgt>
<wgt id='71'> +5.1364486e+02 </wgt>
<wgt id='72'> +4.8765485e+02 </wgt>
<wgt id='73'> +4.9613381e+02 </wgt>
<wgt id='74'> +5.2336740e+02 </wgt>
<wgt id='75'> +5.1628675e+02 </wgt>
<wgt id='76'> +4.9137660e+02 </wgt>
<wgt id='77'> +4.8893445e+02 </wgt>
<wgt id='78'> +4.9984636e+02 </wgt>
<wgt id='79'> +4.8780578e+02 </wgt>
<wgt id='80'> +4.9851199e+02 </wgt>
<wgt id='81'> +4.9509463e+02 </wgt>
<wgt id='82'> +5.1401048e+02 </wgt>
<wgt id='83'> +5.1512401e+02 </wgt>
<wgt id='84'> +5.5256948e+02 </wgt>
<wgt id='85'> +5.2794151e+02 </wgt>
<wgt id='86'> +5.0335854e+02 </wgt>
<wgt id='87'> +5.0589376e+02 </wgt>
<wgt id='88'> +5.1279948e+02 </wgt>
<wgt id='89'> +5.1637379e+02 </wgt>
<wgt id='90'> +5.1178252e+02 </wgt>
<wgt id='91'> +5.3310214e+02 </wgt>
<wgt id='92'> +4.6223159e+02 </wgt>
<wgt id='93'> +4.9805065e+02 </wgt>
<wgt id='94'> +4.9947394e+02 </wgt>
<wgt id='95'> +4.8617127e+02 </wgt>
<wgt id='96'> +5.4589801e+02 </wgt>
<wgt id='97'> +5.0956189e+02 </wgt>
<wgt id='98'> +4.8428618e+02 </wgt>
<wgt id='99'> +4.8790298e+02 </wgt>
<wgt id='100'> +4.9377793e+02 </wgt>
<wgt id='101'> +5.3699751e+02 </wgt>
<wgt id='102'> +4.9747172e+02 </wgt>
<wgt id='103'> +5.4794111e+02 </wgt>
<wgt id='104'> +5.0555555e+02 </wgt>
<wgt id='105'> +5.2293029e+02 </wgt>
<wgt id='106'> +4.6213902e+02 </wgt>
<wgt id='107'> +4.9348420e+02 </wgt>
<wgt id='108'> +4.4977969e+02 </wgt>
<wgt id='109'> +4.7335597e+02 </wgt>
<wgt id='110'> +5.0436335e+02 </wgt>
<wgt id='111'> +4.9091709e+02 </wgt>
<wgt id='112'> +4.7986749e+02 </wgt>
<wgt id='113'> +4.6370572e+02 </wgt>
<wgt id='114'> +4.9943672e+02 </wgt>
<wgt id='115'> +4.9849203e+02 </wgt>
<wgt id='116'> +5.0921353e+02 </wgt>
<wgt id='117'> +5.0841971e+02 </wgt>
<wgt id='118'> +5.2103847e+02 </wgt>
<wgt id='119'> +4.8598620e+02 </wgt>
<wgt id='120'> +4.9880029e+02 </wgt>
<wgt id='121'> +4.9074016e+02 </wgt>
<wgt id='122'> +4.9832556e+02 </wgt>
<wgt id='123'> +5.1113224e+02 </wgt>
<wgt id='124'> +5.4391313e+02 </wgt>
<wgt id='125'> +5.4546896e+02 </wgt>
<wgt id='126'> +5.2409633e+02 </wgt>
<wgt id='127'> +5.1991406e+02 </wgt>
<wgt id='128'> +4.6622306e+02 </wgt>
<wgt id='129'> +5.7035239e+02 </wgt>
<wgt id='130'> +5.0749861e+02 </wgt>
<wgt id='131'> +5.3760980e+02 </wgt>
<wgt id='132'> +5.0610180e+02 </wgt>
<wgt id='133'> +5.0564844e+02 </wgt>
<wgt id='134'> +4.7835420e+02 </wgt>
<wgt id='135'> +5.1654653e+02 </wgt>
<wgt id='136'> +4.9139104e+02 </wgt>
<wgt id='137'> +4.7781775e+02 </wgt>
<wgt id='138'> +4.6381058e+02 </wgt>
<wgt id='139'> +5.1598072e+02 </wgt>
<wgt id='140'> +5.3241006e+02 </wgt>
<wgt id='141'> +5.0594941e+02 </wgt>
<wgt id='142'> +5.0070068e+02 </wgt>
<wgt id='143'> +5.0382950e+02 </wgt>
<wgt id='144'> +5.0188065e+02 </wgt>
<wgt id='145'> +5.0553589e+02 </wgt>
</rwgt>
</event>
<event>
 4      1 +5.0481800e+02 1.83983100e+02 7.54677100e-03 1.16400300e-01
       21 -1    0    0  501  502 +0.0000000000e+00 +0.0000000000e+00 +2.2327946943e+02 2.2327946943e+02 0.0000000000e+00 0.0000e+00 1.0000e+00
       21 -1    0    0  502  503 -0.0000000000e+00 -0.0000000000e+00 -3.5994929846e+02 3.5994929846e+02 0.0000000000e+00 0.0000e+00 1.0000e+00
        6  1    1    2  501    0 +6.1963267550e+01 -9.0192822173e+00 +1.5352629351e+02 2.3962495024e+02 1.7300000000e+02 0.0000e+00 1.0000e+00
       -6  1    1    2    0  503 -6.1963267550e+01 +9.0192822173e+00 -2.9019612254e+02 3.4360381766e+02 1.7300000000e+02 0.0000e+00 1.0000e+00
<mgrwt>
<rscale>  2 0.18398314E+03</rscale>
<asrwt>0</asrwt>
<pdfrwt beam="1">  1       21 0.34350687E-01 0.18398314E+03</pdfrwt>
<pdfrwt beam="2">  1       21 0.55376815E-01 0.18398314E+03</pdfrwt>
<totfact> 0.25231457E+04</totfact>
</mgrwt>
<rwgt>
<wgt id='1'> +6.6134155e+02 </wgt>
<wgt id='2'> +6.9471315e+02 </wgt>
<wgt id='3'> +5.0481801e+02 </wgt>
<wgt id='4'> +6.6134156e+02 </wgt>
<wgt id='5'> +4.3031835e+02 </wgt>
<wgt id='6'> +6.2078841e+02 </wgt>
<wgt id='7'> +6.5348221e+02 </wgt>
<wgt id='8'> +4.6618921e+02 </wgt>
<wgt id='9'> +6.2078842e+02 </wgt>
<wgt id='10'> +3.9750396e+02 </wgt>
<wgt id='11'> +5.7328553e+02 </wgt>
<wgt id='12'> +6.0435261e+02 </wgt>
<wgt id='13'> +4.3086598e+02 </wgt>
<wgt id='14'> +5.7328554e+02 </wgt>
<wgt id='15'> +3.6776676e+02 </wgt>
<wgt id='16'> +5.3779535e+02 </wgt>
<wgt id='17'> +5.6189563e+02 </wgt>
<wgt id='18'> +4.2443871e+02 </wgt>
<wgt id='19'> +5.3779535e+02 </wgt>
<wgt id='20'> +3.6515677e+02 </wgt>
<wgt id='21'> +5.2854735e+02 </wgt>
<wgt id='22'> +3.9196056e+02 </wgt>
<wgt id='23'> +5.0481801e+02 </wgt>
<wgt id='24'> +3.3731135e+02 </wgt>
<wgt id='25'> +4.6618921e+02 </wgt>
<wgt id='26'> +4.8881050e+02 </wgt>
<wgt id='27'> +3.6226164e+02 </wgt>
<wgt id='28'> +4.6618921e+02 </wgt>
<wgt id='29'> +3.1207715e+02 </wgt>
<wgt id='30'> +4.5216526e+02 </wgt>
<wgt id='31'> +4.7043653e+02 </wgt>
<wgt id='32'> +3.6194343e+02 </wgt>
<wgt id='33'> +4.5216527e+02 </wgt>
<wgt id='34'> +3.1374695e+02 </wgt>
<wgt id='35'> +4.2443871e+02 </wgt>
<wgt id='36'> +4.4251631e+02 </wgt>
<wgt id='37'> +3.3424743e+02 </wgt>
<wgt id='38'> +4.2443871e+02 </wgt>
<wgt id='39'> +2.8982184e+02 </wgt>
<wgt id='40'> +3.9196056e+02 </wgt>
<wgt id='41'> +4.0924739e+02 </wgt>
<wgt id='42'> +3.0892145e+02 </wgt>
<wgt id='43'> +3.9196056e+02 </wgt>
<wgt id='44'> +2.6814032e+02 </wgt>
<wgt id='45'> +5.0481800e+02 </wgt>
<wgt id='46'> +5.1019994e+02 </wgt>
<wgt id='47'> +5.2639729e+02 </wgt>
<wgt id='48'> +5.0978942e+02 </wgt>
<wgt id='49'> +5.0362540e+02 </wgt>
<wgt id='50'> +6.0714960e+02 </wgt>
<wgt id='51'> +4.9497704e+02 </wgt>
<wgt id='52'> +5.0354312e+02 </wgt>
<wgt id='53'> +5.0665849e+02 </wgt>
<wgt id='54'> +5.0774753e+02 </wgt>
<wgt id='55'> +4.4806294e+02 </wgt>
<wgt id='56'> +4.6254960e+02 </wgt>
<wgt id='57'> +4.9063538e+02 </wgt>
<wgt id='58'> +5.0348732e+02 </wgt>
<wgt id='59'> +5.0283931e+02 </wgt>
<wgt id='60'> +4.8884945e+02 </wgt>
<wgt id='61'> +4.8067582e+02 </wgt>
<wgt id='62'> +4.9926541e+02 </wgt>
<wgt id='63'> +5.0510907e+02 </wgt>
<wgt id='64'> +4.9502362e+02 </wgt>
<wgt id='65'> +5.9808095e+02 </wgt>
<wgt id='66'> +4.9331083e+02 </wgt>
<wgt id='67'> +5.0934292e+02 </wgt>
<wgt id='68'> +5.4801390e+02 </wgt>
<wgt id='69'> +4.9846425e+02 </wgt>
<wgt id='70'> +4.9476785e+02 </wgt>
<wgt id='71'> +5.1444268e+02 </wgt>
<wgt id='72'> +4.8065945e+02 </wgt>
<wgt id='73'> +4.9560687e+02 </wgt>
<wgt id='74'> +5.2608988e+02 </wgt>
<wgt id='75'> +5.1769541e+02 </wgt>
<wgt id='76'> +4.8796693e+02 </wgt>
<wgt id='77'> +4.8918673e+02 </wgt>
<wgt id='78'> +4.9929689e+02 </wgt>
<wgt id='79'> +4.8663340e+02 </wgt>
<wgt id='80'> +4.9828354e+02 </wgt>
<wgt id='81'> +4.9281177e+02 </wgt>
<wgt id='82'> +5.1576511e+02 </wgt>
<wgt id='83'> +5.1856876e+02 </wgt>
<wgt id='84'> +5.5923672e+02 </wgt>
<wgt id='85'> +5.3265650e+02 </wgt>
<wgt id='86'> +5.0473455e+02 </wgt>
<wgt id='87'> +5.0692107e+02 </wgt>
<wgt id='88'> +5.1543891e+02 </wgt>
<wgt id='89'> +5.2039013e+02 </wgt>
<wgt id='90'> +5.1288819e+02 </wgt>
<wgt id='91'> +5.3679507e+02 </wgt>
<wgt id='92'> +4.5315630e+02 </wgt>
<wgt id='93'> +4.9894723e+02 </wgt>
<wgt id='94'> +4.9822824e+02 </wgt>
<wgt id='95'> +4.8095964e+02 </wgt>
<wgt id='96'> +5.5426798e+02 </wgt>
<wgt id='97'> +5.0978951e+02 </wgt>
<wgt id='98'> +4.8168116e+02 </wgt>
<wgt id='99'> +4.8782910e+02 </wgt>
<wgt id='100'> +4.9194199e+02 </wgt>
<wgt id='101'> +5.4206841e+02 </wgt>
<wgt id='102'> +4.9885604e+02 </wgt>
<wgt id='103'> +5.5479489e+02 </wgt>
<wgt id='104'> +5.0664587e+02 </wgt>
<wgt id='105'> +5.2150835e+02 </wgt>
<wgt id='106'> +4.5405938e+02 </wgt>
<wgt id='107'> +4.8930620e+02 </wgt>
<wgt id='108'> +4.4185052e+02 </wgt>
<wgt id='109'> +4.6780021e+02 </wgt>
<wgt id='110'> +5.0418660e+02 </wgt>
<wgt id='111'> +4.8792603e+02 </wgt>
<wgt id='112'> +4.7565244e+02 </wgt>
<wgt id='113'> +4.5758555e+02 </wgt>
<wgt id='114'> +4.9440866e+02 </wgt>
<wgt id='115'> +4.9614822e+02 </wgt>
<wgt id='116'> +5.1236245e+02 </wgt>
<wgt id='117'> +5.0843478e+02 </wgt>
<wgt id='118'> +5.2528874e+02 </wgt>
<wgt id='119'> +4.8161379e+02 </wgt>
<wgt id='120'> +4.9671859e+02 </wgt>
<wgt id='121'> +4.8743748e+02 </wgt>
<wgt id='122'> +4.9697233e+02 </wgt>
<wgt id='123'> +5.1363095e+02 </wgt>
<wgt id='124'> +5.4943715e+02 </wgt>
<wgt id='125'> +5.4950620e+02 </wgt>
<wgt id='126'> +5.2831296e+02 </wgt>
<wgt id='127'> +5.2331858e+02 </wgt>
<wgt id='128'> +4.6245312e+02 </wgt>
<wgt id='129'> +5.7698187e+02 </wgt>
<wgt id='130'> +5.1051793e+02 </wgt>
<wgt id='131'> +5.4177707e+02 </wgt>
<wgt id='132'> +5.0490459e+02 </wgt>
<wgt id='133'> +5.0701998e+02 </wgt>
<wgt id='134'> +4.7479282e+02 </wgt>
<wgt id='135'> +5.1845366e+02 </wgt>
<wgt id='136'> +4.8756655e+02 </wgt>
<wgt id='137'> +4.7650062e+02 </wgt>
<wgt id='138'> +4.6404961e+02 </wgt>
<wgt id='139'> +5.1806902e+02 </wgt>
<wgt id='140'> +5.3442226e+02 </wgt>
<wgt id='141'> +5.0559260e+02 </wgt>
<wgt id='142'> +5.0139518e+02 </wgt>
<wgt id='143'> +5.0325978e+02 </wgt>
<wgt id='144'> +5.0038264e+02 </wgt>
<wgt id='145'> +5.0631256e+02 </wgt>
</rwgt>
</event>
<event>
 4      1 +5.0481800e+02 2.20520200e+02 7.54677100e-03 1.13349600e-01
       21 -1    0    0  503  502 +0.0000000000e+00 +0.0000000000e+00 +1.4109513458e+02 1.4109513458e+02 0.0000000000e+00 0.0000e+00 1.0000e+00
       21 -1    0    0  501  503 -0.0000000000e+00 -0.0000000000e+00 -3.4511465911e+02 3.4511465911e+02 0.0000000000e+00 0.0000e+00 1.0000e+00
        6  1    1    2  501    0 -4.2066099507e+01 +1.3011763204e+02 -1.1088116188e+02 2.4682744368e+02 1.7300000000e+02 0.0000e+00 1.0000e+00
       -6  1    1    2    0  502 +4.2066099507e+01 -1.3011763204e+02 -9.3138362656e+01 2.3938235000e+02 1.7300000000e+02 0.0000e+00 1.0000e+00
<mgrwt>
<rscale>  2 0.22052019E+03</rscale>
<asrwt>0</asrwt>
<pdfrwt beam="1">  1       21 0.21706944E-01 0.22052019E+03</pdfrwt>
<pdfrwt beam="2">  1       21 0.53094562E-01 0.22052019E+03</pdfrwt>
<totfact> 0.65702635E+04</totfact>
</mgrwt>
<rwgt>
<wgt id='1'> +6.4693058e+02 </wgt>
<wgt id='2'> +5.2715208e+02 </wgt>
<wgt id='3'> +5.0481800e+02 </wgt>
<wgt id='4'> +6.4693058e+02 </wgt>
<wgt id='5'> +5.0470132e+02 </wgt>
<wgt id='6'> +6.1492278e+02 </wgt>
<wgt id='7'> +4.9431284e+02 </wgt>
<wgt id='8'> +4.7328794e+02 </wgt>
<wgt id='9'> +6.1492277e+02 </wgt>
<wgt id='10'> +4.7317883e+02 </wgt>
<wgt id='11'> +5.7651576e+02 </wgt>
<wgt id='12'> +4.6335422e+02 </wgt>
<wgt id='13'> +4.4365768e+02 </wgt>
<wgt id='14'> +5.7651576e+02 </wgt>
<wgt id='15'> +4.4355550e+02 </wgt>
<wgt id='16'> +5.3109466e+02 </wgt>
<wgt id='17'> +4.4394367e+02 </wgt>
<wgt id='18'> +4.2625038e+02 </wgt>
<wgt id='19'> +5.3109466e+02 </wgt>
<wgt id='20'> +4.2615715e+02 </wgt>
<wgt id='21'> +4.1628795e+02 </wgt>
<wgt id='22'> +3.9962752e+02 </wgt>
<wgt id='23'> +5.0481800e+02 </wgt>
<wgt id='24'> +3.9954035e+02 </wgt>
<wgt id='25'> +4.7328794e+02 </wgt>
<wgt id='26'> +3.9021600e+02 </wgt>
<wgt id='27'> +3.7460878e+02 </wgt>
<wgt id='28'> +4.7328794e+02 </wgt>
<wgt id='29'> +3.7452715e+02 </wgt>
<wgt id='30'> +4.4843746e+02 </wgt>
<wgt id='31'> +3.7896877e+02 </wgt>
<wgt id='32'> +3.6467157e+02 </wgt>
<wgt id='33'> +4.4843746e+02 </wgt>
<wgt id='34'> +3.6459605e+02 </wgt>
<wgt id='35'> +4.2625038e+02 </wgt>
<wgt id='36'> +3.5536069e+02 </wgt>
<wgt id='37'> +3.4189481e+02 </wgt>
<wgt id='38'> +4.2625038e+02 </wgt>
<wgt id='39'> +3.4182422e+02 </wgt>
<wgt id='40'> +3.9962752e+02 </wgt>
<wgt id='41'> +3.3310459e+02 </wgt>
<wgt id='42'> +3.2049044e+02 </wgt>
<wgt id='43'> +3.9962752e+02 </wgt>
<wgt id='44'> +3.2042434e+02 </wgt>
<wgt id='45'> +5.0481800e+02 </wgt>
<wgt id='46'> +5.0612000e+02 </wgt>
<wgt id='47'> +5.2253182e+02 </wgt>
<wgt id='48'> +5.0672411e+02 </wgt>
<wgt id='49'> +5.0320287e+02 </wgt>
<wgt id='50'> +5.8959110e+02 </wgt>
<wgt id='51'> +4.9506070e+02 </wgt>
<wgt id='52'> +5.0229029e+02 </wgt>
<wgt id='53'> +5.0931436e+02 </wgt>
<wgt id='54'> +5.0793362e+02 </wgt>
<wgt id='55'> +4.5411306e+02 </wgt>
<wgt id='56'> +4.6906550e+02 </wgt>
<wgt id='57'> +4.9277435e+02 </wgt>
<wgt id='58'> +5.0677605e+02 </wgt>
<wgt id='59'> +5.0004866e+02 </wgt>
<wgt id='60'> +4.8658307e+02 </wgt>
<wgt id='61'> +4.8746860e+02 </wgt>
<wgt id='62'> +4.9818466e+02 </wgt>
<wgt id='63'> +5.0532200e+02 </wgt>
<wgt id='64'> +4.9919716e+02 </wgt>
<wgt id='65'> +5.9112233e+02 </wgt>
<wgt id='66'> +4.9343028e+02 </wgt>
<wgt id='67'> +5.0923380e+02 </wgt>
<wgt id='68'> +5.4192491e+02 </wgt>
<wgt id='69'> +4.9390949e+02 </wgt>
<wgt id='70'> +4.9666323e+02 </wgt>
<wgt id='71'> +5.1402375e+02 </wgt>
<wgt id='72'> +4.8997187e+02 </wgt>
<wgt id='73'> +4.9741142e+02 </wgt>
<wgt id='74'> +5.2103488e+02 </wgt>
<wgt id='75'> +5.1592505e+02 </wgt>
<wgt id='76'> +4.9096668e+02 </wgt>
<wgt id='77'> +4.8759270e+02 </wgt>
<wgt id='78'> +5.0290408e+02 </wgt>
<wgt id='79'> +4.8596716e+02 </wgt>
<wgt id='80'> +4.9977333e+02 </wgt>
<wgt id='81'> +4.9554287e+02 </wgt>
<wgt id='82'> +5.1635646e+02 </wgt>
<wgt id='83'> +5.1490100e+02 </wgt>
<wgt id='84'> +5.5292632e+02 </wgt>
<wgt id='85'> +5.2934726e+02 </wgt>
<wgt id='86'> +5.0222629e+02 </wgt>
<wgt id='87'> +5.0522398e+02 </wgt>
<wgt id='88'> +5.1302485e+02 </wgt>
<wgt id='89'> +5.1631205e+02 </wgt>
<wgt id='90'> +5.1100464e+02 </wgt>
<wgt id='91'> +5.3504092e+02 </wgt>
<wgt id='92'> +4.6442445e+02 </wgt>
<wgt id='93'> +4.9695799e+02 </wgt>
<wgt id='94'> +5.0114714e+02 </wgt>
<wgt id='95'> +4.8548463e+02 </wgt>
<wgt id='96'> +5.4485557e+02 </wgt>
<wgt id='97'> +5.1129408e+02 </wgt>
<wgt id='98'> +4.8304495e+02 </wgt>
<wgt id='99'> +4.8933762e+02 </wgt>
<wgt id='100'> +4.9809375e+02 </wgt>
<wgt id='101'> +5.3257219e+02 </wgt>
<wgt id='102'> +4.9330212e+02 </wgt>
<wgt id='103'> +5.4738342e+02 </wgt>
<wgt id='104'> +5.0452424e+02 </wgt>
<wgt id='105'> +5.2393692e+02 </wgt>
<wgt id='106'> +4.6419789e+02 </wgt>
<wgt id='107'> +4.9670541e+02 </wgt>
<wgt id='108'> +4.5211945e+02 </wgt>
<wgt id='109'> +4.7437417e+02 </wgt>
<wgt id='110'> +5.0520411e+02 </wgt>
<wgt id='111'> +4.9159820e+02 </wgt>
<wgt id='112'> +4.8127133e+02 </wgt>
<wgt id='113'> +4.6419497e+02 </wgt>
<wgt id='114'> +5.0201311e+02 </wgt>
<wgt id='115'> +5.0268051e+02 </wgt>
<wgt id='116'> +5.0616789e+02 </wgt>
<wgt id='117'> +5.1011961e+02 </wgt>
<wgt id='118'> +5.1864073e+02 </wgt>
<wgt id='119'> +4.8590781e+02 </wgt>
<wgt id='120'> +5.0099604e+02 </wgt>
<wgt id='121'> +4.9092629e+02 </wgt>
<wgt id='122'> +4.9842093e+02 </wgt>
<wgt id='123'> +5.1102333e+02 </wgt>
<wgt id='124'> +5.4043609e+02 </wgt>
<wgt id='125'> +5.4184967e+02 </wgt>
<wgt id='126'> +5.2377206e+02 </wgt>
<wgt id='127'> +5.1951206e+02 </wgt>
<wgt id='128'> +4.6810047e+02 </wgt>
<wgt id='129'> +5.7019136e+02 </wgt>
<wgt id='130'> +5.0802833e+02 </wgt>
<wgt id='131'> +5.3892734e+02 </wgt>
<wgt id='132'> +5.0240647e+02 </wgt>
<wgt id='133'> +5.0306778e+02 </wgt>
<wgt id='134'> +4.7678542e+02 </wgt>
<wgt id='135'> +5.1705128e+02 </wgt>
<wgt id='136'> +4.8745341e+02 </wgt>
<wgt id='137'> +4.7668085e+02 </wgt>
<wgt id='138'> +4.6130707e+02 </wgt>
<wgt id='139'> +5.1490417e+02 </wgt>
<wgt id='140'> +5.3448539e+02 </wgt>
<wgt id='141'> +5.0483561e+02 </wgt>
<wgt id='142'> +5.0511649e+02 </wgt>
<wgt id='143'> +5.0198594e+02 </wgt>
<wgt id='144'> +5.0351420e+02 </wgt>
<wgt id='145'> +5.0580893e+02 </wgt>
</rwgt>
</event>
<event>
 4      1 +5.0481800e+02 1.85908700e+02 7.54677100e-03 1.16220400e-01
       21 -1    0    0  503  502 +0.0000000000e+00 +0.0000000000e+00 +1.1667814616e+02 1.1667814616e+02 0.0000000000e+00 0.0000e+00 -1.0000e+00
       21 -1    0    0  501  503 -0.0000000000e+00 -0.0000000000e+00 -3.1297570688e+02 3.1297570688e+02 0.0000000000e+00 0.0000e+00 -1.0000e+00
        6  1    1    2  501    0 +4.9784388933e+01 +4.6417110201e+01 -1.4786012746e+02 2.3753873535e+02 1.7300000000e+02 0.0000e+00 1.0000e+00
       -6  1    1    2    0  502 -4.9784388933e+01 -4.6417110201e+01 -4.8437433263e+01 1.9211511768e+02 1.7300000000e+02 0.0000e+00 1.0000e+00
<mgrwt>
<rscale>  2 0.18590867E+03</rscale>
<asrwt>0</asrwt>
<pdfrwt beam="1">  1       21 0.17950484E-01 0.18590867E+03</pdfrwt>
<pdfrwt beam="2">  1       21 0.48150109E-01 0.18590867E+03</pdfrwt>
<totfact> 0.11657491E+05</totfact>
</mgrwt>
<rwgt>
<wgt id='1'> +6.4282086e+02 </wgt>
<wgt id='2'> +5.7403391e+02 </wgt>
<wgt id='3'> +5.0481800e+02 </wgt>
<wgt id='4'> +6.4282086e+02 </wgt>
<wgt id='5'> +5.0014478e+02 </wgt>
<wgt id='6'> +6.2050318e+02 </wgt>
<wgt id='7'> +5.4842013e+02 </wgt>
<wgt id='8'> +4.7786144e+02 </wgt>
<wgt id='9'> +6.2050318e+02 </wgt>
<wgt id='10'> +4.7330243e+02 </wgt>
<wgt id='11'> +5.8736920e+02 </wgt>
<wgt id='12'> +5.1857358e+02 </wgt>
<wgt id='13'> +4.5158019e+02 </wgt>
<wgt id='14'> +5.8736920e+02 </wgt>
<wgt id='15'> +4.4725760e+02 </wgt>
<wgt id='16'> +5.2297482e+02 </wgt>
<wgt id='17'> +4.7494441e+02 </wgt>
<wgt id='18'> +4.2457165e+02 </wgt>
<wgt id='19'> +5.2297482e+02 </wgt>
<wgt id='20'> +4.2097702e+02 </wgt>
<wgt id='21'> +4.5375207e+02 </wgt>
<wgt id='22'> +4.0190013e+02 </wgt>
<wgt id='23'> +5.0481800e+02 </wgt>
<wgt id='24'> +3.9838354e+02 </wgt>
<wgt id='25'> +4.7786144e+02 </wgt>
<wgt id='26'> +4.2905762e+02 </wgt>
<wgt id='27'> +3.7979657e+02 </wgt>
<wgt id='28'> +4.7786144e+02 </wgt>
<wgt id='29'> +3.7646134e+02 </wgt>
<wgt id='30'> +4.3984224e+02 </wgt>
<wgt id='31'> +4.0221015e+02 </wgt>
<wgt id='32'> +3.6212542e+02 </wgt>
<wgt id='33'> +4.3984224e+02 </wgt>
<wgt id='34'> +3.5923898e+02 </wgt>
<wgt id='35'> +4.2457165e+02 </wgt>
<wgt id='36'> +3.8426326e+02 </wgt>
<wgt id='37'> +3.4278844e+02 </wgt>
<wgt id='38'> +4.2457165e+02 </wgt>
<wgt id='39'> +3.3995893e+02 </wgt>
<wgt id='40'> +4.0190013e+02 </wgt>
<wgt id='41'> +3.6335059e+02 </wgt>
<wgt id='42'> +3.2393589e+02 </wgt>
<wgt id='43'> +4.0190013e+02 </wgt>
<wgt id='44'> +3.2125171e+02 </wgt>
<wgt id='45'> +5.0481800e+02 </wgt>
<wgt id='46'> +5.0273440e+02 </wgt>
<wgt id='47'> +5.2030612e+02 </wgt>
<wgt id='48'> +5.0453579e+02 </wgt>
<wgt id='49'> +5.0381938e+02 </wgt>
<wgt id='50'> +5.7957919e+02 </wgt>
<wgt id='51'> +4.9521297e+02 </wgt>
<wgt id='52'> +5.0184164e+02 </wgt>
<wgt id='53'> +5.1171462e+02 </wgt>
<wgt id='54'> +5.0765390e+02 </wgt>
<wgt id='55'> +4.5451038e+02 </wgt>
<wgt id='56'> +4.7290624e+02 </wgt>
<wgt id='57'> +4.9267408e+02 </wgt>
<wgt id='58'> +5.1053418e+02 </wgt>
<wgt id='59'> +4.9650497e+02 </wgt>
<wgt id='60'> +4.8383262e+02 </wgt>
<wgt id='61'> +4.9497700e+02 </wgt>
<wgt id='62'> +4.9772678e+02 </wgt>
<wgt id='63'> +5.0524105e+02 </wgt>
<wgt id='64'> +5.0224114e+02 </wgt>
<wgt id='65'> +5.9100542e+02 </wgt>
<wgt id='66'> +4.9258071e+02 </wgt>
<wgt id='67'> +5.0926923e+02 </wgt>
<wgt id='68'> +5.3754907e+02 </wgt>
<wgt id='69'> +4.8915229e+02 </wgt>
<wgt id='70'> +4.9728509e+02 </wgt>
<wgt id='71'> +5.1440695e+02 </wgt>
<wgt id='72'> +4.9656731e+02 </wgt>
<wgt id='73'> +4.9957155e+02 </wgt>
<wgt id='74'> +5.1708640e+02 </wgt>
<wgt id='75'> +5.1467379e+02 </wgt>
<wgt id='76'> +4.9173112e+02 </wgt>
<wgt id='77'> +4.8574196e+02 </wgt>
<wgt id='78'> +5.0703791e+02 </wgt>
<wgt id='79'> +4.8379917e+02 </wgt>
<wgt id='80'> +5.0142599e+02 </wgt>
<wgt id='81'> +4.9689032e+02 </wgt>
<wgt id='82'> +5.1869692e+02 </wgt>
<wgt id='83'> +5.1292251e+02 </wgt>
<wgt id='84'> +5.5078577e+02 </wgt>
<wgt id='85'> +5.2966057e+02 </wgt>
<wgt id='86'> +4.9988574e+02 </wgt>
<wgt id='87'> +5.0407708e+02 </wgt>
<wgt id='88'> +5.1175861e+02 </wgt>
<wgt id='89'> +5.1533133e+02 </wgt>
<wgt id='90'> +5.1006766e+02 </wgt>
<wgt id='91'> +5.3640266e+02 </wgt>
<wgt id='92'> +4.7096657e+02 </wgt>
<wgt id='93'> +4.9506716e+02 </wgt>
<wgt id='94'> +5.0399055e+02 </wgt>
<wgt id='95'> +4.8675733e+02 </wgt>
<wgt id='96'> +5.4022588e+02 </wgt>
<wgt id='97'> +5.1357405e+02 </wgt>
<wgt id='98'> +4.8194584e+02 </wgt>
<wgt id='99'> +4.9141202e+02 </wgt>
<wgt id='100'> +5.0488083e+02 </wgt>
<wgt id='101'> +5.2539950e+02 </wgt>
<wgt id='102'> +4.8705332e+02 </wgt>
<wgt id='103'> +5.4486161e+02 </wgt>
<wgt id='104'> +5.0226307e+02 </wgt>
<wgt id='105'> +5.2641687e+02 </wgt>
<wgt id='106'> +4.6987021e+02 </wgt>
<wgt id='107'> +5.0272837e+02 </wgt>
<wgt id='108'> +4.5757184e+02 </wgt>
<wgt id='109'> +4.7778699e+02 </wgt>
<wgt id='110'> +5.0683384e+02 </wgt>
<wgt id='111'> +4.9353856e+02 </wgt>
<wgt id='112'> +4.8427024e+02 </wgt>
<wgt id='113'> +4.6674512e+02 </wgt>
<wgt id='114'> +5.0739810e+02 </wgt>
<wgt id='115'> +5.0816270e+02 </wgt>
<wgt id='116'> +5.0073808e+02 </wgt>
<wgt id='117'> +5.1206839e+02 </wgt>
<wgt id='118'> +5.1398900e+02 </wgt>
<wgt id='119'> +4.8743453e+02 </wgt>
<wgt id='120'> +5.0398922e+02 </wgt>
<wgt id='121'> +4.9287914e+02 </wgt>
<wgt id='122'> +4.9908915e+02 </wgt>
<wgt id='123'> +5.0959071e+02 </wgt>
<wgt id='124'> +5.3429100e+02 </wgt>
<wgt id='125'> +5.3602775e+02 </wgt>
<wgt id='126'> +5.2162775e+02 </wgt>
<wgt id='127'> +5.1792871e+02 </wgt>
<wgt id='128'> +4.7093225e+02 </wgt>
<wgt id='129'> +5.6859152e+02 </wgt>
<wgt id='130'> +5.0678280e+02 </wgt>
<wgt id='131'> +5.3959595e+02 </wgt>
<wgt id='132'> +4.9878969e+02 </wgt>
<wgt id='133'> +4.9912114e+02 </wgt>
<wgt id='134'> +4.7590624e+02 </wgt>
<wgt id='135'> +5.1738525e+02 </wgt>
<wgt id='136'> +4.8425283e+02 </wgt>
<wgt id='137'> +4.7481127e+02 </wgt>
<wgt id='138'> +4.5641252e+02 </wgt>
<wgt id='139'> +5.1312248e+02 </wgt>
<wgt id='140'> +5.3683656e+02 </wgt>
<wgt id='141'> +5.0314070e+02 </wgt>
<wgt id='142'> +5.1067067e+02 </wgt>
<wgt id='143'> +5.0016849e+02 </wgt>
<wgt id='144'> +5.0667523e+02 </wgt>
<wgt id='145'> +5.0584245e+02 </wgt>
</rwgt>
</event>
<event>
 4      1 +5.0481800e+02 1.95582700e+02 7.54677100e-03 1.15352000e-01
       21 -1    0    0  501  502 +0.0000000000e+00 +0.0000000000e+00 +1.3801077413e+03 1.3801077413e+03 0.0000000000e+00 0.0000e+00 -1.0000e+00
       21 -1    0    0  502  503 -0.0000000000e+00 -0.0000000000e+00 -2.7987353647e+01 2.7987353647e+01 0.0000000000e+00 0.0000e+00 -1.0000e+00
        6  1    1    2  501    0 +8.7828517891e+01 +2.4692879457e+01 +6.0687624373e+02 6.3761380322e+02 1.7300000000e+02 0.0000e+00 -1.0000e+00
       -6  1    1    2    0  503 -8.7828517891e+01 -2.4692879457e+01 +7.4524414392e+02 7.7048129173e+02 1.7300000000e+02 0.0000e+00 -1.0000e+00
<mgrwt>
<rscale>  2 0.19558269E+03</rscale>
<asrwt>0</asrwt>
<pdfrwt beam="1">  1       21 0.21232422E+00 0.19558269E+03</pdfrwt>
<pdfrwt beam="2">  1       21 0.43057478E-02 0.19558269E+03</pdfrwt>
<totfact> 0.38776680E+04</totfact>
</mgrwt>
<rwgt>
<wgt id='1'> +6.7318231e+02 </wgt>
<wgt id='2'> +6.8404318e+02 </wgt>
<wgt id='3'> +5.0481800e+02 </wgt>
<wgt id='4'> +6.7318232e+02 </wgt>
<wgt id='5'> +5.0383424e+02 </wgt>
<wgt id='6'> +6.1900995e+02 </wgt>
<wgt id='7'> +6.2952414e+02 </wgt>
<wgt id='8'> +4.5741880e+02 </wgt>
<wgt id='9'> +6.1900996e+02 </wgt>
<wgt id='10'> +4.5652344e+02 </wgt>
<wgt id='11'> +5.6088885e+02 </wgt>
<wgt id='12'> +5.7049708e+02 </wgt>
<wgt id='13'> +4.1540093e+02 </wgt>
<wgt id='14'> +5.6088885e+02 </wgt>
<wgt id='15'> +4.1459545e+02 </wgt>
<wgt id='16'> +5.4899691e+02 </wgt>
<wgt id='17'> +5.5685109e+02 </wgt>
<wgt id='18'> +4.2518047e+02 </wgt>
<wgt id='19'> +5.4899691e+02 </wgt>
<wgt id='20'> +4.2440480e+02 </wgt>
<wgt id='21'> +5.1246940e+02 </wgt>
<wgt id='22'> +3.8525873e+02 </wgt>
<wgt id='23'> +5.0481800e+02 </wgt>
<wgt id='24'> +3.8455254e+02 </wgt>
<wgt id='25'> +4.5741879e+02 </wgt>
<wgt id='26'> +4.6441793e+02 </wgt>
<wgt id='27'> +3.4986939e+02 </wgt>
<wgt id='28'> +4.5741880e+02 </wgt>
<wgt id='29'> +3.4923450e+02 </wgt>
<wgt id='30'> +4.6238994e+02 </wgt>
<wgt id='31'> +4.6851773e+02 </wgt>
<wgt id='32'> +3.6297850e+02 </wgt>
<wgt id='33'> +4.6238994e+02 </wgt>
<wgt id='34'> +3.6234809e+02 </wgt>
<wgt id='35'> +4.2518047e+02 </wgt>
<wgt id='36'> +4.3117632e+02 </wgt>
<wgt id='37'> +3.2889712e+02 </wgt>
<wgt id='38'> +4.2518047e+02 </wgt>
<wgt id='39'> +3.2832305e+02 </wgt>
<wgt id='40'> +3.8525872e+02 </wgt>
<wgt id='41'> +3.9074725e+02 </wgt>
<wgt id='42'> +2.9868509e+02 </wgt>
<wgt id='43'> +3.8525873e+02 </wgt>
<wgt id='44'> +2.9816923e+02 </wgt>
<wgt id='45'> +5.0481800e+02 </wgt>
<wgt id='46'> +5.1742858e+02 </wgt>
<wgt id='47'> +5.2666254e+02 </wgt>
<wgt id='48'> +5.0302971e+02 </wgt>
<wgt id='49'> +4.6198839e+02 </wgt>
<wgt id='50'> +5.8294819e+02 </wgt>
<wgt id='51'> +4.7387827e+02 </wgt>
<wgt id='52'> +4.6357972e+02 </wgt>
<wgt id='53'> +5.1115159e+02 </wgt>
<wgt id='54'> +5.3801370e+02 </wgt>
<wgt id='55'> +5.8160459e+02 </wgt>
<wgt id='56'> +4.8938583e+02 </wgt>
<wgt id='57'> +5.3981387e+02 </wgt>
<wgt id='58'> +4.5395443e+02 </wgt>
<wgt id='59'> +5.4974758e+02 </wgt>
<wgt id='60'> +5.0501705e+02 </wgt>
<wgt id='61'> +4.3281636e+02 </wgt>
<wgt id='62'> +4.6002042e+02 </wgt>
<wgt id='63'> +5.3596914e+02 </wgt>
<wgt id='64'> +5.0785429e+02 </wgt>
<wgt id='65'> +4.4363317e+02 </wgt>
<wgt id='66'> +5.1413088e+02 </wgt>
<wgt id='67'> +5.0809569e+02 </wgt>
<wgt id='68'> +6.2463911e+02 </wgt>
<wgt id='69'> +5.5305258e+02 </wgt>
<wgt id='70'> +5.5787865e+02 </wgt>
<wgt id='71'> +4.6213064e+02 </wgt>
<wgt id='72'> +4.5816783e+02 </wgt>
<wgt id='73'> +4.5523857e+02 </wgt>
<wgt id='74'> +5.8905785e+02 </wgt>
<wgt id='75'> +5.5936119e+02 </wgt>
<wgt id='76'> +5.2086147e+02 </wgt>
<wgt id='77'> +4.7267831e+02 </wgt>
<wgt id='78'> +4.2991110e+02 </wgt>
<wgt id='79'> +5.4968759e+02 </wgt>
<wgt id='80'> +4.4008895e+02 </wgt>
<wgt id='81'> +5.3015986e+02 </wgt>
<wgt id='82'> +4.9839202e+02 </wgt>
<wgt id='83'> +4.9572154e+02 </wgt>
<wgt id='84'> +4.8263443e+02 </wgt>
<wgt id='85'> +4.4852111e+02 </wgt>
<wgt id='86'> +5.3502491e+02 </wgt>
<wgt id='87'> +4.9507649e+02 </wgt>
<wgt id='88'> +4.9221375e+02 </wgt>
<wgt id='89'> +4.1456597e+02 </wgt>
<wgt id='90'> +4.6144268e+02 </wgt>
<wgt id='91'> +4.2882886e+02 </wgt>
<wgt id='92'> +4.7730395e+02 </wgt>
<wgt id='93'> +5.1323846e+02 </wgt>
<wgt id='94'> +4.6101171e+02 </wgt>
<wgt id='95'> +5.3268888e+02 </wgt>
<wgt id='96'> +5.2552009e+02 </wgt>
<wgt id='97'> +4.5144384e+02 </wgt>
<wgt id='98'> +5.5376650e+02 </wgt>
<wgt id='99'> +4.1798572e+02 </wgt>
<wgt id='100'> +3.7675506e+02 </wgt>
<wgt id='101'> +5.8931142e+02 </wgt>
<wgt id='102'> +5.7216454e+02 </wgt>
<wgt id='103'> +4.7114664e+02 </wgt>
<wgt id='104'> +5.4430336e+02 </wgt>
<wgt id='105'> +5.1585201e+02 </wgt>
<wgt id='106'> +4.9893361e+02 </wgt>
<wgt id='107'> +4.9501676e+02 </wgt>
<wgt id='108'> +4.7781117e+02 </wgt>
<wgt id='109'> +5.0358390e+02 </wgt>
<wgt id='110'> +4.5780201e+02 </wgt>
<wgt id='111'> +4.8880784e+02 </wgt>
<wgt id='112'> +5.3150539e+02 </wgt>
<wgt id='113'> +5.4663884e+02 </wgt>
<wgt id='114'> +5.2643899e+02 </wgt>
<wgt id='115'> +4.6293931e+02 </wgt>
<wgt id='116'> +5.5723698e+02 </wgt>
<wgt id='117'> +4.9563917e+02 </wgt>
<wgt id='118'> +5.1569331e+02 </wgt>
<wgt id='119'> +5.6248138e+02 </wgt>
<wgt id='120'> +5.0450282e+02 </wgt>
<wgt id='121'> +4.9400217e+02 </wgt>
<wgt id='122'> +4.9209602e+02 </wgt>
<wgt id='123'> +4.7494274e+02 </wgt>
<wgt id='124'> +5.6620796e+02 </wgt>
<wgt id='125'> +6.4409001e+02 </wgt>
<wgt id='126'> +4.9027864e+02 </wgt>
<wgt id='127'> +4.7666519e+02 </wgt>
<wgt id='128'> +4.9248980e+02 </wgt>
<wgt id='129'> +5.0469921e+02 </wgt>
<wgt id='130'> +5.0013940e+02 </wgt>
<wgt id='131'> +4.5557164e+02 </wgt>
<wgt id='132'> +5.5211564e+02 </wgt>
<wgt id='133'> +5.5409486e+02 </wgt>
<wgt id='134'> +5.3815823e+02 </wgt>
<wgt id='135'> +4.7910397e+02 </wgt>
<wgt id='136'> +6.0346581e+02 </wgt>
<wgt id='137'> +5.4017859e+02 </wgt>
<wgt id='138'> +5.2258456e+02 </wgt>
<wgt id='139'> +5.2098947e+02 </wgt>
<wgt id='140'> +4.8949694e+02 </wgt>
<wgt id='141'> +5.8491968e+02 </wgt>
<wgt id='142'> +3.3679442e+02 </wgt>
<wgt id='143'> +5.1682261e+02 </wgt>
<wgt id='144'> +4.5478130e+02 </wgt>
<wgt id='145'> +4.6011130e+02 </wgt>
</rwgt>
</event>
<event>
 4      1 +5.0481800e+02 2.18204100e+02 7.54677100e-03 1.13522900e-01
       -1 -1    0    0    0  501 -0.0000000000e+00 +0.0000000000e+00 +3.4541229040e+02 3.4541229040e+02 0.0000000000e+00 0.0000e+00 1.0000e+00
        1 -1    0    0  502    0 +0.0000000000e+00 -0.0000000000e+00 -2.8460378455e+02 2.8460378455e+02 0.0000000000e+00 0.0000e+00 -1.0000e+00
        6  1    1    2  502    0 +8.4392366176e+01 +1.0277134465e+02 -1.9580209795e+02 2.9317483233e+02 1.7300000000e+02 0.0000e+00 -1.0000e+00
       -6  1    1    2    0  501 -8.4392366176e+01 -1.0277134465e+02 +2.5661060380e+02 3.3684124263e+02 1.7300000000e+02 0.0000e+00 1.0000e+00
<mgrwt>
<rscale>  2 0.21820408E+03</rscale>
<asrwt>0</asrwt>
<pdfrwt beam="2">  1        1 0.43785197E-01 0.21820408E+03</pdfrwt>
<pdfrwt beam="1">  1       -1 0.53140353E-01 0.21820408E+03</pdfrwt>
<totfact> 0.34662714E+02</totfact>
</mgrwt>
<rwgt>
<wgt id='1'> +6.2006828e+02 </wgt>
<wgt id='2'> +5.5093269e+02 </wgt>
<wgt id='3'> +5.0481800e+02 </wgt>
<wgt id='4'> +6.2006828e+02 </wgt>
<wgt id='5'> +4.5859080e+02 </wgt>
<wgt id='6'> +6.1528455e+02 </wgt>
<wgt id='7'> +5.4540616e+02 </wgt>
<wgt id='8'> +4.9889960e+02 </wgt>
<wgt id='9'> +6.1528455e+02 </wgt>
<wgt id='10'> +4.5243990e+02 </wgt>
<wgt id='11'> +6.0807106e+02 </wgt>
<wgt id='12'> +5.3804591e+02 </wgt>
<wgt id='13'> +4.9155866e+02 </wgt>
<wgt id='14'> +6.0807106e+02 </wgt>
<wgt id='15'> +4.4523645e+02 </wgt>
<wgt id='16'> +5.0874287e+02 </wgt>
<wgt id='17'> +4.6089208e+02 </wgt>
<wgt id='18'> +4.2616661e+02 </wgt>
<wgt id='19'> +5.0874287e+02 </wgt>
<wgt id='20'> +3.8990026e+02 </wgt>
<wgt id='21'> +4.5626876e+02 </wgt>
<wgt id='22'> +4.2117031e+02 </wgt>
<wgt id='23'> +5.0481800e+02 </wgt>
<wgt id='24'> +3.8467068e+02 </wgt>
<wgt id='25'> +4.9889960e+02 </wgt>
<wgt id='26'> +4.5011142e+02 </wgt>
<wgt id='27'> +4.1497309e+02 </wgt>
<wgt id='28'> +4.9889960e+02 </wgt>
<wgt id='29'> +3.7854621e+02 </wgt>
<wgt id='30'> +4.2947998e+02 </wgt>
<wgt id='31'> +3.9200124e+02 </wgt>
<wgt id='32'> +3.6453260e+02 </wgt>
<wgt id='33'> +4.2947998e+02 </wgt>
<wgt id='34'> +3.3556357e+02 </wgt>
<wgt id='35'> +4.2616661e+02 </wgt>
<wgt id='36'> +3.8806898e+02 </wgt>
<wgt id='37'> +3.6025889e+02 </wgt>
<wgt id='38'> +4.2616661e+02 </wgt>
<wgt id='39'> +3.3106279e+02 </wgt>
<wgt id='40'> +4.2117031e+02 </wgt>
<wgt id='41'> +3.8283200e+02 </wgt>
<wgt id='42'> +3.5495794e+02 </wgt>
<wgt id='43'> +4.2117031e+02 </wgt>
<wgt id='44'> +3.2579182e+02 </wgt>
<wgt id='45'> +5.0481800e+02 </wgt>
<wgt id='46'> +5.2530330e+02 </wgt>
<wgt id='47'> +5.0687935e+02 </wgt>
<wgt id='48'> +4.7893315e+02 </wgt>
<wgt id='49'> +4.8524010e+02 </wgt>
<wgt id='50'> +4.3707800e+02 </wgt>
<wgt id='51'> +4.7622888e+02 </wgt>
<wgt id='52'> +5.4658131e+02 </wgt>
<wgt id='53'> +5.2453640e+02 </wgt>
<wgt id='54'> +4.9642609e+02 </wgt>
<wgt id='55'> +4.9115075e+02 </wgt>
<wgt id='56'> +5.3821842e+02 </wgt>
<wgt id='57'> +4.5088974e+02 </wgt>
<wgt id='58'> +5.5058503e+02 </wgt>
<wgt id='59'> +4.4612504e+02 </wgt>
<wgt id='60'> +5.0740265e+02 </wgt>
<wgt id='61'> +5.0525934e+02 </wgt>
<wgt id='62'> +5.4000428e+02 </wgt>
<wgt id='63'> +5.3994667e+02 </wgt>
<wgt id='64'> +4.9468097e+02 </wgt>
<wgt id='65'> +4.7532098e+02 </wgt>
<wgt id='66'> +4.8109327e+02 </wgt>
<wgt id='67'> +5.4162296e+02 </wgt>
<wgt id='68'> +4.4478566e+02 </wgt>
<wgt id='69'> +4.8184773e+02 </wgt>
<wgt id='70'> +5.4253800e+02 </wgt>
<wgt id='71'> +5.0068754e+02 </wgt>
<wgt id='72'> +4.7096830e+02 </wgt>
<wgt id='73'> +5.3113921e+02 </wgt>
<wgt id='74'> +4.6860556e+02 </wgt>
<wgt id='75'> +4.9803796e+02 </wgt>
<wgt id='76'> +5.1732435e+02 </wgt>
<wgt id='77'> +5.2176865e+02 </wgt>
<wgt id='78'> +4.9405448e+02 </wgt>
<wgt id='79'> +5.3139000e+02 </wgt>
<wgt id='80'> +5.3711483e+02 </wgt>
<wgt id='81'> +5.3933382e+02 </wgt>
<wgt id='82'> +4.7319259e+02 </wgt>
<wgt id='83'> +4.6675733e+02 </wgt>
<wgt id='84'> +5.0680470e+02 </wgt>
<wgt id='85'> +4.9445634e+02 </wgt>
<wgt id='86'> +5.5359017e+02 </wgt>
<wgt id='87'> +5.2233881e+02 </wgt>
<wgt id='88'> +4.8983619e+02 </wgt>
<wgt id='89'> +5.7789888e+02 </wgt>
<wgt id='90'> +5.7224639e+02 </wgt>
<wgt id='91'> +4.6680840e+02 </wgt>
<wgt id='92'> +5.0884221e+02 </wgt>
<wgt id='93'> +5.3561185e+02 </wgt>
<wgt id='94'> +5.4606584e+02 </wgt>
<wgt id='95'> +4.8831775e+02 </wgt>
<wgt id='96'> +4.8984233e+02 </wgt>
<wgt id='97'> +5.1002224e+02 </wgt>
<wgt id='98'> +5.1960071e+02 </wgt>
<wgt id='99'> +5.7165014e+02 </wgt>
<wgt id='100'> +4.7503615e+02 </wgt>
<wgt id='101'> +4.5850709e+02 </wgt>
<wgt id='102'> +5.0567913e+02 </wgt>
<wgt id='103'> +4.9364951e+02 </wgt>
<wgt id='104'> +4.6220084e+02 </wgt>
<wgt id='105'> +5.0020335e+02 </wgt>
<wgt id='106'> +5.2458109e+02 </wgt>
<wgt id='107'> +4.8154742e+02 </wgt>
<wgt id='108'> +5.3653980e+02 </wgt>
<wgt id='109'> +4.7121847e+02 </wgt>
<wgt id='110'> +5.4952478e+02 </wgt>
<wgt id='111'> +5.0649096e+02 </wgt>
<wgt id='112'> +4.8565363e+02 </wgt>
<wgt id='113'> +5.2263391e+02 </wgt>
<wgt id='114'> +4.7386373e+02 </wgt>
<wgt id='115'> +4.8562361e+02 </wgt>
<wgt id='116'> +4.6270919e+02 </wgt>
<wgt id='117'> +4.7920770e+02 </wgt>
<wgt id='118'> +4.9025127e+02 </wgt>
<wgt id='119'> +5.2531018e+02 </wgt>
<wgt id='120'> +5.0140353e+02 </wgt>
<wgt id='121'> +4.6928232e+02 </wgt>
<wgt id='122'> +5.0250874e+02 </wgt>
<wgt id='123'> +5.1957907e+02 </wgt>
<wgt id='124'> +4.7018828e+02 </wgt>
<wgt id='125'> +4.4001807e+02 </wgt>
<wgt id='126'> +5.3926185e+02 </wgt>
<wgt id='127'> +5.2184595e+02 </wgt>
<wgt id='128'> +5.1811388e+02 </wgt>
<wgt id='129'> +4.5622998e+02 </wgt>
<wgt id='130'> +4.7916713e+02 </wgt>
<wgt id='131'> +5.2482553e+02 </wgt>
<wgt id='132'> +4.8798982e+02 </wgt>
<wgt id='133'> +5.8183920e+02 </wgt>
<wgt id='134'> +4.7525426e+02 </wgt>
<wgt id='135'> +4.4202711e+02 </wgt>
<wgt id='136'> +5.2651714e+02 </wgt>
<wgt id='137'> +5.1394598e+02 </wgt>
<wgt id='138'> +5.2115933e+02 </wgt>
<wgt id='139'> +5.6185839e+02 </wgt>
<wgt id='140'> +4.7773113e+02 </wgt>
<wgt id='141'> +5.1032432e+02 </wgt>
<wgt id='142'> +5.3943775e+02 </wgt>
<wgt id='143'> +5.1570995e+02 </wgt>
<wgt id='144'> +5.0874420e+02 </wgt>
<wgt id='145'> +5.3238276e+02 </wgt>
</rwgt>
</event>
<event>
 4      1 +5.0481800e+02 1.83599700e+02 7.54677100e-03 1.16436400e-01
        1 -1    0    0  502    0 +0.0000000000e+00 +0.0000000000e+00 +4.4554460481e+02 4.4554460481e+02 0.0000000000e+00 0.0000e+00 1.0000e+00
       -1 -1    0    0    0  501 -0.0000000000e+00 -0.0000000000e+00 -1.1210656487e+02 1.1210656487e+02 0.0000000000e+00 0.0000e+00 -1.0000e+00
        6  1    1    2  502    0 -3.2363891870e+01 +5.2272510755e+01 +7.7327280785e+00 1.8376243349e+02 1.7300000000e+02 0.0000e+00 -1.0000e+00
       -6  1    1    2    0  501 +3.2363891870e+01 -5.2272510755e+01 +3.2570531187e+02 3.7388873620e+02 1.7300000000e+02 0.0000e+00 1.0000e+00
<mgrwt>
<rscale>  2 0.18359966E+03</rscale>
<asrwt>0</asrwt>
<pdfrwt beam="1">  1        1 0.68545323E-01 0.18359966E+03</pdfrwt>
<pdfrwt beam="2">  1       -1 0.17247164E-01 0.18359966E+03</pdfrwt>
<totfact> 0.13443728E+03</totfact>
</mgrwt>
<rwgt>
<wgt id='1'> +6.1213742e+02 </wgt>
<wgt id='2'> +5.5932766e+02 </wgt>
<wgt id='3'> +5.0481800e+02 </wgt>
<wgt id='4'> +6.1213742e+02 </wgt>
<wgt id='5'> +4.8100907e+02 </wgt>
<wgt id='6'> +6.2084456e+02 </wgt>
<wgt id='7'> +5.6549280e+02 </wgt>
<wgt id='8'> +5.0865375e+02 </wgt>
<wgt id='9'> +6.2084456e+02 </wgt>
<wgt id='10'> +4.8388689e+02 </wgt>
<wgt id='11'> +6.2556192e+02 </wgt>
<wgt id='12'> +5.6835870e+02 </wgt>
<wgt id='13'> +5.0989536e+02 </wgt>
<wgt id='14'> +6.2556192e+02 </wgt>
<wgt id='15'> +4.8447952e+02 </wgt>
<wgt id='16'> +4.9773810e+02 </wgt>
<wgt id='17'> +4.6238653e+02 </wgt>
<wgt id='18'> +4.2441173e+02 </wgt>
<wgt id='19'> +4.9773809e+02 </wgt>
<wgt id='20'> +4.0624859e+02 </wgt>
<wgt id='21'> +4.6748315e+02 </wgt>
<wgt id='22'> +4.2763654e+02 </wgt>
<wgt id='23'> +5.0481800e+02 </wgt>
<wgt id='24'> +4.0867912e+02 </wgt>
<wgt id='25'> +5.0865376e+02 </wgt>
<wgt id='26'> +4.6985234e+02 </wgt>
<wgt id='27'> +4.2868038e+02 </wgt>
<wgt id='28'> +5.0865375e+02 </wgt>
<wgt id='29'> +4.0917964e+02 </wgt>
<wgt id='30'> +4.1845950e+02 </wgt>
<wgt id='31'> +3.9144718e+02 </wgt>
<wgt id='32'> +3.6190666e+02 </wgt>
<wgt id='33'> +4.1845950e+02 </wgt>
<wgt id='34'> +3.4764057e+02 </wgt>
<wgt id='35'> +4.2441174e+02 </wgt>
<wgt id='36'> +3.9576187e+02 </wgt>
<wgt id='37'> +3.6465654e+02 </wgt>
<wgt id='38'> +4.2441173e+02 </wgt>
<wgt id='39'> +3.4972046e+02 </wgt>
<wgt id='40'> +4.2763654e+02 </wgt>
<wgt id='41'> +3.9776758e+02 </wgt>
<wgt id='42'> +3.6554665e+02 </wgt>
<wgt id='43'> +4.2763654e+02 </wgt>
<wgt id='44'> +3.5014877e+02 </wgt>
<wgt id='45'> +5.0481800e+02 </wgt>
<wgt id='46'> +5.0999596e+02 </wgt>
<wgt id='47'> +5.0531256e+02 </wgt>
<wgt id='48'> +4.9463757e+02 </wgt>
<wgt id='49'> +4.7144189e+02 </wgt>
<wgt id='50'> +4.5697569e+02 </wgt>
<wgt id='51'> +5.1415547e+02 </wgt>
<wgt id='52'> +5.2108964e+02 </wgt>
<wgt id='53'> +5.0390737e+02 </wgt>
<wgt id='54'> +4.9800898e+02 </wgt>
<wgt id='55'> +5.0845940e+02 </wgt>
<wgt id='56'> +5.9204096e+02 </wgt>
<wgt id='57'> +4.7300552e+02 </wgt>
<wgt id='58'> +4.9409089e+02 </wgt>
<wgt id='59'> +4.4548923e+02 </wgt>
<wgt id='60'> +5.1076054e+02 </wgt>
<wgt id='61'> +5.2612859e+02 </wgt>
<wgt id='62'> +5.3471177e+02 </wgt>
<wgt id='63'> +5.2464794e+02 </wgt>
<wgt id='64'> +5.0964734e+02 </wgt>
<wgt id='65'> +5.0691568e+02 </wgt>
<wgt id='66'> +5.0965087e+02 </wgt>
<wgt id='67'> +5.4092399e+02 </wgt>
<wgt id='68'> +4.3458660e+02 </wgt>
<wgt id='69'> +4.8686933e+02 </wgt>
<wgt id='70'> +4.8599178e+02 </wgt>
<wgt id='71'> +5.2914463e+02 </wgt>
<wgt id='72'> +4.9688937e+02 </wgt>
<wgt id='73'> +5.2233871e+02 </wgt>
<wgt id='74'> +4.4644139e+02 </wgt>
<wgt id='75'> +5.0848424e+02 </wgt>
<wgt id='76'> +5.2778273e+02 </wgt>
<wgt id='77'> +5.2802724e+02 </wgt>
<wgt id='78'> +5.2324062e+02 </wgt>
<wgt id='79'> +5.2227906e+02 </wgt>
<wgt id='80'> +5.7307418e+02 </wgt>
<wgt id='81'> +4.9771796e+02 </wgt>
<wgt id='82'> +4.7893486e+02 </wgt>
<wgt id='83'> +4.7634856e+02 </wgt>
<wgt id='84'> +4.9429827e+02 </wgt>
<wgt id='85'> +5.1482239e+02 </wgt>
<wgt id='86'> +5.1735000e+02 </wgt>
<wgt id='87'> +5.1053641e+02 </wgt>
<wgt id='88'> +5.0823190e+02 </wgt>
<wgt id='89'> +5.0247226e+02 </wgt>
<wgt id='90'> +5.4868169e+02 </wgt>
<wgt id='91'> +4.9681693e+02 </wgt>
<wgt id='92'> +5.3714323e+02 </wgt>
<wgt id='93'> +5.2731921e+02 </wgt>
<wgt id='94'> +5.5542060e+02 </wgt>
<wgt id='95'> +5.1161134e+02 </wgt>
<wgt id='96'> +4.7273844e+02 </wgt>
<wgt id='97'> +5.5042863e+02 </wgt>
<wgt id='98'> +5.2922553e+02 </wgt>
<wgt id='99'> +5.3644734e+02 </wgt>
<wgt id='100'> +5.2478768e+02 </wgt>
<wgt id='101'> +4.2755639e+02 </wgt>
<wgt id='102'> +4.7452688e+02 </wgt>
<wgt id='103'> +4.5275666e+02 </wgt>
<wgt id='104'> +4.9562034e+02 </wgt>
<wgt id='105'> +4.8461903e+02 </wgt>
<wgt id='106'> +5.2906670e+02 </wgt>
<wgt id='107'> +4.8217941e+02 </wgt>
<wgt id='108'> +5.8160119e+02 </wgt>
<wgt id='109'> +5.1591897e+02 </wgt>
<wgt id='110'> +5.2957254e+02 </wgt>
<wgt id='111'> +5.1953596e+02 </wgt>
<wgt id='112'> +4.9893879e+02 </wgt>
<wgt id='113'> +5.0126397e+02 </wgt>
<wgt id='114'> +4.9670043e+02 </wgt>
<wgt id='115'> +5.4304874e+02 </wgt>
<wgt id='116'> +4.5793426e+02 </wgt>
<wgt id='117'> +5.0552632e+02 </wgt>
<wgt id='118'> +4.6080117e+02 </wgt>
<wgt id='119'> +4.9363082e+02 </wgt>
<wgt id='120'> +5.0127208e+02 </wgt>
<wgt id='121'> +4.7627970e+02 </wgt>
<wgt id='122'> +5.1395948e+02 </wgt>
<wgt id='123'> +5.5270460e+02 </wgt>
<wgt id='124'> +4.5721012e+02 </wgt>
<wgt id='125'> +4.2994335e+02 </wgt>
<wgt id='126'> +5.2314484e+02 </wgt>
<wgt id='127'> +5.1450641e+02 </wgt>
<wgt id='128'> +5.4845236e+02 </wgt>
<wgt id='129'> +4.3785667e+02 </wgt>
<wgt id='130'> +4.9599682e+02 </wgt>
<wgt id='131'> +5.0673920e+02 </wgt>
<wgt id='132'> +4.7741117e+02 </wgt>
<wgt id='133'> +4.8777477e+02 </wgt>
<wgt id='134'> +5.0782985e+02 </wgt>
<wgt id='135'> +4.6728874e+02 </wgt>
<wgt id='136'> +4.7655661e+02 </wgt>
<wgt id='137'> +5.1653075e+02 </wgt>
<wgt id='138'> +5.3098981e+02 </wgt>
<wgt id='139'> +4.7733619e+02 </wgt>
<wgt id='140'> +4.8518496e+02 </wgt>
<wgt id='141'> +4.7730983e+02 </wgt>
<wgt id='142'> +6.1391045e+02 </wgt>
<wgt id='143'> +5.0898995e+02 </wgt>
<wgt id='144'> +5.2026565e+02 </wgt>
<wgt id='145'> +5.0895623e+02 </wgt>
</rwgt>
</event>
<event>
 4      1 +5.0481800e+02 1.85003800e+02 7.54677100e-03 1.16304600e-01
       21 -1    0    0  501  502 +0.0000000000e+00 +0.0000000000e+00 +3.9132604047e+02 3.9132604047e+02 0.0000000000e+00 0.0000e+00 1.0000e+00
       21 -1    0    0  502  503 -0.0000000000e+00 -0.0000000000e+00 -3.0419506518e+02 3.0419506518e+02 0.0000000000e+00 0.0000e+00 1.0000e+00
        6  1    1    2  501    0 -5.8868362347e+01 +2.8843230026e+01 +3.3710472513e+02 3.8453349881e+02 1.7300000000e+02 0.0000e+00 1.0000e+00
       -6  1    1    2    0  503 +5.8868362347e+01 -2.8843230026e+01 -2.4997374983e+02 3.1098760684e+02 1.7300000000e+02 0.0000e+00 1.0000e+00
<mgrwt>
<rscale>  2 0.18500383E+03</rscale>
<asrwt>0</asrwt>
<pdfrwt beam="1">  1       21 0.60204006E-01 0.18500383E+03</pdfrwt>
<pdfrwt beam="2">  1       21 0.46799241E-01 0.18500383E+03</pdfrwt>
<totfact> 0.11302006E+04</totfact>
</mgrwt>
<rwgt>
<wgt id='1'> +6.7143869e+02 </wgt>
<wgt id='2'> +7.3011435e+02 </wgt>
<wgt id='3'> +5.0481800e+02 </wgt>
<wgt id='4'> +6.7143870e+02 </wgt>
<wgt id='5'> +3.9696950e+02 </wgt>
<wgt id='6'> +6.2063787e+02 </wgt>
<wgt id='7'> +6.7643369e+02 </wgt>
<wgt id='8'> +4.5990367e+02 </wgt>
<wgt id='9'> +6.2063787e+02 </wgt>
<wgt id='10'> +3.6235750e+02 </wgt>
<wgt id='11'> +5.6541888e+02 </wgt>
<wgt id='12'> +6.1774896e+02 </wgt>
<wgt id='13'> +4.1992008e+02 </wgt>
<wgt id='14'> +5.6541888e+02 </wgt>
<wgt id='15'> +3.3170789e+02 </wgt>
<wgt id='16'> +5.4613867e+02 </wgt>
<wgt id='17'> +5.8909038e+02 </wgt>
<wgt id='18'> +4.2450969e+02 </wgt>
<wgt id='19'> +5.4613867e+02 </wgt>
<wgt id='20'> +3.3811823e+02 </wgt>
<wgt id='21'> +5.4577832e+02 </wgt>
<wgt id='22'> +3.8674049e+02 </wgt>
<wgt id='23'> +5.0481800e+02 </wgt>
<wgt id='24'> +3.0863751e+02 </wgt>
<wgt id='25'> +4.5990366e+02 </wgt>
<wgt id='26'> +4.9842873e+02 </wgt>
<wgt id='27'> +3.5311765e+02 </wgt>
<wgt id='28'> +4.5990367e+02 </wgt>
<wgt id='29'> +2.8253175e+02 </wgt>
<wgt id='30'> +4.5925691e+02 </wgt>
<wgt id='31'> +4.9173702e+02 </wgt>
<wgt id='32'> +3.6204043e+02 </wgt>
<wgt id='33'> +4.5925691e+02 </wgt>
<wgt id='34'> +2.9144493e+02 </wgt>
<wgt id='35'> +4.2450969e+02 </wgt>
<wgt id='36'> +4.5558274e+02 </wgt>
<wgt id='37'> +3.2982921e+02 </wgt>
<wgt id='38'> +4.2450969e+02 </wgt>
<wgt id='39'> +2.6603369e+02 </wgt>
<wgt id='40'> +3.8674049e+02 </wgt>
<wgt id='41'> +4.1605816e+02 </wgt>
<wgt id='42'> +3.0115417e+02 </wgt>
<wgt id='43'> +3.8674049e+02 </wgt>
<wgt id='44'> +2.4353152e+02 </wgt>
<wgt id='45'> +5.0481800e+02 </wgt>
<wgt id='46'> +5.1579323e+02 </wgt>
<wgt id='47'> +5.2925992e+02 </wgt>
<wgt id='48'> +5.1308534e+02 </wgt>
<wgt id='49'> +5.0292988e+02 </wgt>
<wgt id='50'> +6.2337819e+02 </wgt>
<wgt id='51'> +4.9478478e+02 </wgt>
<wgt id='52'> +5.0515327e+02 </wgt>
<wgt id='53'> +5.0194193e+02 </wgt>
<wgt id='54'> +5.0802598e+02 </wgt>
<wgt id='55'> +4.4789127e+02 </wgt>
<wgt id='56'> +4.5601319e+02 </wgt>
<wgt id='57'> +4.9135548e+02 </wgt>
<wgt id='58'> +4.9836075e+02 </wgt>
<wgt id='59'> +5.0991007e+02 </wgt>
<wgt id='60'> +4.9490181e+02 </wgt>
<wgt id='61'> +4.6752621e+02 </wgt>
<wgt id='62'> +5.0002813e+02 </wgt>
<wgt id='63'> +5.0508430e+02 </wgt>
<wgt id='64'> +4.9000751e+02 </wgt>
<wgt id='65'> +5.9660472e+02 </wgt>
<wgt id='66'> +4.9417923e+02 </wgt>
<wgt id='67'> +5.0921786e+02 </wgt>
<wgt id='68'> +5.5553951e+02 </wgt>
<wgt id='69'> +5.0486859e+02 </wgt>
<wgt id='70'> +4.9360136e+02 </wgt>
<wgt id='71'> +5.1415595e+02 </wgt>
<wgt id='72'> +4.7177600e+02 </wgt>
<wgt id='73'> +4.9274078e+02 </wgt>
<wgt id='74'> +5.3262392e+02 </wgt>
<wgt id='75'> +5.1911747e+02 </wgt>
<wgt id='76'> +4.8697921e+02 </wgt>
<wgt id='77'> +4.9268581e+02 </wgt>
<wgt id='78'> +4.9241838e+02 </wgt>
<wgt id='79'> +4.9026594e+02 </wgt>
<wgt id='80'> +4.9568517e+02 </wgt>
<wgt id='81'> +4.9057810e+02 </wgt>
<wgt id='82'> +5.1164010e+02 </wgt>
<wgt id='83'> +5.2098023e+02 </wgt>
<wgt id='84'> +5.6192434e+02 </wgt>
<wgt id='85'> +5.3211664e+02 </wgt>
<wgt id='86'> +5.0805339e+02 </wgt>
<wgt id='87'> +5.0905256e+02 </wgt>
<wgt id='88'> +5.1649053e+02 </wgt>
<wgt id='89'> +5.2302553e+02 </wgt>
<wgt id='90'> +5.1539835e+02 </wgt>
<wgt id='91'> +5.3460523e+02 </wgt>
<wgt id='92'> +4.4376491e+02 </wgt>
<wgt id='93'> +5.0202702e+02 </wgt>
<wgt id='94'> +4.9404028e+02 </wgt>
<wgt id='95'> +4.7939656e+02 </wgt>
<wgt id='96'> +5.6123610e+02 </wgt>
<wgt id='97'> +5.0616481e+02 </wgt>
<wgt id='98'> +4.8307238e+02 </wgt>
<wgt id='99'> +4.8503762e+02 </wgt>
<wgt id='100'> +4.8196889e+02 </wgt>
<wgt id='101'> +5.5473850e+02 </wgt>
<wgt id='102'> +5.0914572e+02 </wgt>
<wgt id='103'> +5.5976652e+02 </wgt>
<wgt id='104'> +5.0941725e+02 </wgt>
<wgt id='105'> +5.1818497e+02 </wgt>
<wgt id='106'> +4.4529256e+02 </wgt>
<wgt id='107'> +4.7994639e+02 </wgt>
<wgt id='108'> +4.3273874e+02 </wgt>
<wgt id='109'> +4.6248058e+02 </wgt>
<wgt id='110'> +5.0237055e+02 </wgt>
<wgt id='111'> +4.8474771e+02 </wgt>
<wgt id='112'> +4.7015933e+02 </wgt>
<wgt id='113'> +4.5322865e+02 </wgt>
<wgt id='114'> +4.8548608e+02 </wgt>
<wgt id='115'> +4.8540022e+02 </wgt>
<wgt id='116'> +5.2097024e+02 </wgt>
<wgt id='117'> +5.0451442e+02 </wgt>
<wgt id='118'> +5.3311072e+02 </wgt>
<wgt id='119'> +4.7921958e+02 </wgt>
<wgt id='120'> +4.9006235e+02 </wgt>
<wgt id='121'> +4.8509453e+02 </wgt>
<wgt id='122'> +4.9599689e+02 </wgt>
<wgt id='123'> +5.1529145e+02 </wgt>
<wgt id='124'> +5.6013211e+02 </wgt>
<wgt id='125'> +5.5940736e+02 </wgt>
<wgt id='126'> +5.3139693e+02 </wgt>
<wgt id='127'> +5.2617378e+02 </wgt>
<wgt id='128'> +4.5643142e+02 </wgt>
<wgt id='129'> +5.8058460e+02 </wgt>
<wgt id='130'> +5.1120357e+02 </wgt>
<wgt id='131'> +5.4111123e+02 </wgt>
<wgt id='132'> +5.1256798e+02 </wgt>
<wgt id='133'> +5.1356284e+02 </wgt>
<wgt id='134'> +4.7649516e+02 </wgt>
<wgt id='135'> +5.1836702e+02 </wgt>
<wgt id='136'> +4.9397840e+02 </wgt>
<wgt id='137'> +4.7848442e+02 </wgt>
<wgt id='138'> +4.7019912e+02 </wgt>
<wgt id='139'> +5.2157732e+02 </wgt>
<wgt id='140'> +5.3067335e+02 </wgt>
<wgt id='141'> +5.0765948e+02 </wgt>
<wgt id='142'> +4.9271125e+02 </wgt>
<wgt id='143'> +5.0722941e+02 </wgt>
<wgt id='144'> +4.9615366e+02 </wgt>
<wgt id='145'> +5.0636187e+02 </wgt>
</rwgt>
</event>
<event>
 4      1 +5.0481800e+02 1.78897000e+02 7.54677100e-03 1.16887500e-01
       -2 -1    0    0    0  501 -0.0000000000e+00 +0.0000000000e+00 +8.7899412449e+01 8.7899412449e+01 0.0000000000e+00 0.0000e+00 1.0000e+00
        2 -1    0    0  502    0 +0.0000000000e+00 -0.0000000000e+00 -3.8753222083e+02 3.8753222083e+02 0.0000000000e+00 0.0000e+00 -1.0000e+00
        6  1    1    2  502    0 +3.4919859644e+01 -2.9253284577e+01 -2.0827030690e+02 2.7455540787e+02 1.7300000000e+02 0.0000e+00 -1.0000e+00
       -6  1    1    2    0  501 -3.4919859644e+01 +2.9253284577e+01 -9.1362501476e+01 2.0087622540e+02 1.7300000000e+02 0.0000e+00 1.0000e+00
<mgrwt>
<rscale>  2 0.17889704E+03</rscale>
<asrwt>0</asrwt>
<pdfrwt beam="2">  1        2 0.59620341E-01 0.17889704E+03</pdfrwt>
<pdfrwt beam="1">  1       -2 0.13522987E-01 0.17889704E+03</pdfrwt>
<totfact> 0.32951682E+03</totfact>
</mgrwt>
<rwgt>
<wgt id='1'> +6.0213907e+02 </wgt>
<wgt id='2'> +6.3311238e+02 </wgt>
<wgt id='3'> +5.0481800e+02 </wgt>
<wgt id='4'> +6.0213907e+02 </wgt>
<wgt id='5'> +5.0118580e+02 </wgt>
<wgt id='6'> +6.2162012e+02 </wgt>
<wgt id='7'> +6.5534704e+02 </wgt>
<wgt id='8'> +5.1676755e+02 </wgt>
<wgt id='9'> +6.2162012e+02 </wgt>
<wgt id='10'> +5.1287611e+02 </wgt>
<wgt id='11'> +6.3633449e+02 </wgt>
<wgt id='12'> +6.7227139e+02 </wgt>
<wgt id='13'> +5.2548908e+02 </wgt>
<wgt id='14'> +6.3633449e+02 </wgt>
<wgt id='15'> +5.2139610e+02 </wgt>
<wgt id='16'> +4.8899743e+02 </wgt>
<wgt id='17'> +5.1036897e+02 </wgt>
<wgt id='18'> +4.2406654e+02 </wgt>
<wgt id='19'> +4.8899743e+02 </wgt>
<wgt id='20'> +4.2142509e+02 </wgt>
<wgt id='21'> +5.2829292e+02 </wgt>
<wgt id='22'> +4.3410463e+02 </wgt>
<wgt id='23'> +5.0481800e+02 </wgt>
<wgt id='24'> +4.3125495e+02 </wgt>
<wgt id='25'> +5.1676755e+02 </wgt>
<wgt id='26'> +5.4193610e+02 </wgt>
<wgt id='27'> +4.4143105e+02 </wgt>
<wgt id='28'> +5.1676755e+02 </wgt>
<wgt id='29'> +4.3841904e+02 </wgt>
<wgt id='30'> +4.1077666e+02 </wgt>
<wgt id='31'> +4.2547332e+02 </wgt>
<wgt id='32'> +3.6144100e+02 </wgt>
<wgt id='33'> +4.1077666e+02 </wgt>
<wgt id='34'> +3.5939417e+02 </wgt>
<wgt id='35'> +4.2406655e+02 </wgt>
<wgt id='36'> +4.4041578e+02 </wgt>
<wgt id='37'> +3.6999668e+02 </wgt>
<wgt id='38'> +4.2406654e+02 </wgt>
<wgt id='39'> +3.6777715e+02 </wgt>
<wgt id='40'> +4.3410463e+02 </wgt>
<wgt id='41'> +4.5178952e+02 </wgt>
<wgt id='42'> +3.7624114e+02 </wgt>
<wgt id='43'> +4.3410463e+02 </wgt>
<wgt id='44'> +3.7388672e+02 </wgt>
<wgt id='45'> +5.0481800e+02 </wgt>
<wgt id='46'> +5.0299054e+02 </wgt>
<wgt id='47'> +4.8774297e+02 </wgt>
<wgt id='48'> +4.9680957e+02 </wgt>
<wgt id='49'> +5.0194501e+02 </wgt>
<wgt id='50'> +4.6768362e+02 </wgt>
<wgt id='51'> +5.1736082e+02 </wgt>
<wgt id='52'> +4.8694833e+02 </wgt>
<wgt id='53'> +5.1663100e+02 </wgt>
<wgt id='54'> +4.9575952e+02 </wgt>
<wgt id='55'> +4.8996271e+02 </wgt>
<wgt id='56'> +5.3646152e+02 </wgt>
<wgt id='57'> +4.9911448e+02 </wgt>
<wgt id='58'> +5.1584363e+02 </wgt>
<wgt id='59'> +4.9237001e+02 </wgt>
<wgt id='60'> +5.0368827e+02 </wgt>
<wgt id='61'> +5.5387505e+02 </wgt>
<wgt id='62'> +5.3227638e+02 </wgt>
<wgt id='63'> +5.0934069e+02 </wgt>
<wgt id='64'> +5.0070417e+02 </wgt>
<wgt id='65'> +4.8803540e+02 </wgt>
<wgt id='66'> +5.3403638e+02 </wgt>
<wgt id='67'> +5.1243395e+02 </wgt>
<wgt id='68'> +4.2399502e+02 </wgt>
<wgt id='69'> +4.7463801e+02 </wgt>
<wgt id='70'> +4.9152805e+02 </wgt>
<wgt id='71'> +5.2180989e+02 </wgt>
<wgt id='72'> +5.1839874e+02 </wgt>
<wgt id='73'> +5.1396946e+02 </wgt>
<wgt id='74'> +4.6109679e+02 </wgt>
<wgt id='75'> +4.7412009e+02 </wgt>
<wgt id='76'> +5.2616406e+02 </wgt>
<wgt id='77'> +5.2356307e+02 </wgt>
<wgt id='78'> +5.2616598e+02 </wgt>
<wgt id='79'> +5.1362748e+02 </wgt>
<wgt id='80'> +5.3646105e+02 </wgt>
<wgt id='81'> +5.0038942e+02 </wgt>
<wgt id='82'> +5.0673340e+02 </wgt>
<wgt id='83'> +4.7945152e+02 </wgt>
<wgt id='84'> +5.0736392e+02 </wgt>
<wgt id='85'> +4.9827931e+02 </wgt>
<wgt id='86'> +4.9906484e+02 </wgt>
<wgt id='87'> +5.1069922e+02 </wgt>
<wgt id='88'> +5.0926009e+02 </wgt>
<wgt id='89'> +5.1086439e+02 </wgt>
<wgt id='90'> +5.4265418e+02 </wgt>
<wgt id='91'> +4.8332979e+02 </wgt>
<wgt id='92'> +5.3231222e+02 </wgt>
<wgt id='93'> +4.9088117e+02 </wgt>
<wgt id='94'> +5.0841999e+02 </wgt>
<wgt id='95'> +5.0417000e+02 </wgt>
<wgt id='96'> +4.9263564e+02 </wgt>
<wgt id='97'> +5.2012348e+02 </wgt>
<wgt id='98'> +5.1083198e+02 </wgt>
<wgt id='99'> +5.2864400e+02 </wgt>
<wgt id='100'> +5.5170805e+02 </wgt>
<wgt id='101'> +4.4950929e+02 </wgt>
<wgt id='102'> +4.7208144e+02 </wgt>
<wgt id='103'> +4.8412589e+02 </wgt>
<wgt id='104'> +4.9831618e+02 </wgt>
<wgt id='105'> +4.9712391e+02 </wgt>
<wgt id='106'> +5.3306584e+02 </wgt>
<wgt id='107'> +5.0072934e+02 </wgt>
<wgt id='108'> +5.4756639e+02 </wgt>
<wgt id='109'> +5.2852358e+02 </wgt>
<wgt id='110'> +5.3031838e+02 </wgt>
<wgt id='111'> +5.2513403e+02 </wgt>
<wgt id='112'> +5.1703857e+02 </wgt>
<wgt id='113'> +5.0973190e+02 </wgt>
<wgt id='114'> +5.1339667e+02 </wgt>
<wgt id='115'> +5.2642292e+02 </wgt>
<wgt id='116'> +4.9681618e+02 </wgt>
<wgt id='117'> +5.0237042e+02 </wgt>
<wgt id='118'> +4.7356845e+02 </wgt>
<wgt id='119'> +5.0710167e+02 </wgt>
<wgt id='120'> +4.9864546e+02 </wgt>
<wgt id='121'> +5.1358897e+02 </wgt>
<wgt id='122'> +5.1938862e+02 </wgt>
<wgt id='123'> +5.3886684e+02 </wgt>
<wgt id='124'> +4.7935010e+02 </wgt>
<wgt id='125'> +4.4802737e+02 </wgt>
<wgt id='126'> +4.9852747e+02 </wgt>
<wgt id='127'> +4.9940580e+02 </wgt>
<wgt id='128'> +5.2277878e+02 </wgt>
<wgt id='129'> +4.6969150e+02 </wgt>
<wgt id='130'> +4.9599124e+02 </wgt>
<wgt id='131'> +4.8937336e+02 </wgt>
<wgt id='132'> +4.7333094e+02 </wgt>
<wgt id='133'> +4.9691872e+02 </wgt>
<wgt id='134'> +4.9121304e+02 </wgt>
<wgt id='135'> +4.9826506e+02 </wgt>
<wgt id='136'> +4.8838188e+02 </wgt>
<wgt id='137'> +5.2712146e+02 </wgt>
<wgt id='138'> +5.1156188e+02 </wgt>
<wgt id='139'> +4.8429407e+02 </wgt>
<wgt id='140'> +4.8783163e+02 </wgt>
<wgt id='141'> +4.8344187e+02 </wgt>
<wgt id='142'> +5.5699701e+02 </wgt>
<wgt id='143'> +5.2031636e+02 </wgt>
<wgt id='144'> +5.3743430e+02 </wgt>
<wgt id='145'> +5.1815793e+02 </wgt>
</rwgt>
</event>
<event>
 4      1 +5.0481800e+02 3.72386400e+02 7.54677100e-03 1.05378400e-01
       21 -1    0    0  503  502 +0.0000000000e+00 +0.0000000000e+00 +6.9562882838e+02 6.9562882838e+02 0.0000000000e+00 0.0000e+00 1.0000e+00
       21 -1    0    0  501  503 -0.0000000000e+00 -0.0000000000e+00 -2.2711958706e+02 2.2711958706e+02 0.0000000000e+00 0.0000e+00 -1.0000e+00
        6  1    1    2  501    0 +2.7560753641e+02 +1.8106116905e+02 +7.2918131901e+01 3.7945844967e+02 1.7300000000e+02 0.0000e+00 -1.0000e+00
       -6  1    1    2    0  502 -2.7560753641e+02 -1.8106116905e+02 +3.9559110942e+02 5.4328996578e+02 1.7300000000e+02 0.0000e+00 1.0000e+00
<mgrwt>
<rscale>  2 0.37238644E+03</rscale>
<asrwt>0</asrwt>
<pdfrwt beam="1">  1       21 0.10701982E+00 0.37238644E+03</pdfrwt>
<pdfrwt beam="2">  1       21 0.34941475E-01 0.37238644E+03</pdfrwt>
<totfact> 0.49733738E+03</totfact>
</mgrwt>
<rwgt>
<wgt id='1'> +6.6849184e+02 </wgt>
<wgt id='2'> +5.1202138e+02 </wgt>
<wgt id='3'> +5.0481800e+02 </wgt>
<wgt id='4'> +6.6849184e+02 </wgt>
<wgt id='5'> +4.9211383e+02 </wgt>
<wgt id='6'> +6.0020407e+02 </wgt>
<wgt id='7'> +4.6122876e+02 </wgt>
<wgt id='8'> +4.5483124e+02 </wgt>
<wgt id='9'> +6.0020407e+02 </wgt>
<wgt id='10'> +4.4354700e+02 </wgt>
<wgt id='11'> +5.4077224e+02 </wgt>
<wgt id='12'> +4.1710772e+02 </wgt>
<wgt id='13'> +4.1140698e+02 </wgt>
<wgt id='14'> +5.4077224e+02 </wgt>
<wgt id='15'> +4.0134882e+02 </wgt>
<wgt id='16'> +5.6225330e+02 </wgt>
<wgt id='17'> +4.3643789e+02 </wgt>
<wgt id='18'> +4.3058108e+02 </wgt>
<wgt id='19'> +5.6225330e+02 </wgt>
<wgt id='20'> +4.2024142e+02 </wgt>
<wgt id='21'> +3.9314316e+02 </wgt>
<wgt id='22'> +3.8794521e+02 </wgt>
<wgt id='23'> +5.0481800e+02 </wgt>
<wgt id='24'> +3.7876770e+02 </wgt>
<wgt id='25'> +4.5483124e+02 </wgt>
<wgt id='26'> +3.5553518e+02 </wgt>
<wgt id='27'> +3.5090679e+02 </wgt>
<wgt id='28'> +4.5483124e+02 </wgt>
<wgt id='29'> +3.4273250e+02 </wgt>
<wgt id='30'> +4.7957013e+02 </wgt>
<wgt id='31'> +3.7643392e+02 </wgt>
<wgt id='32'> +3.7159393e+02 </wgt>
<wgt id='33'> +4.7957013e+02 </wgt>
<wgt id='34'> +3.6303730e+02 </wgt>
<wgt id='35'> +4.3058108e+02 </wgt>
<wgt id='36'> +3.3909159e+02 </wgt>
<wgt id='37'> +3.3479893e+02 </wgt>
<wgt id='38'> +4.3058108e+02 </wgt>
<wgt id='39'> +3.2720907e+02 </wgt>
<wgt id='40'> +3.8794521e+02 </wgt>
<wgt id='41'> +3.0665417e+02 </wgt>
<wgt id='42'> +3.0283456e+02 </wgt>
<wgt id='43'> +3.8794521e+02 </wgt>
<wgt id='44'> +2.9607905e+02 </wgt>
<wgt id='45'> +5.0481800e+02 </wgt>
<wgt id='46'> +5.2359522e+02 </wgt>
<wgt id='47'> +5.2773477e+02 </wgt>
<wgt id='48'> +5.1339020e+02 </wgt>
<wgt id='49'> +4.9215056e+02 </wgt>
<wgt id='50'> +6.2770502e+02 </wgt>
<wgt id='51'> +4.9024737e+02 </wgt>
<wgt id='52'> +5.0043062e+02 </wgt>
<wgt id='53'> +4.9580125e+02 </wgt>
<wgt id='54'> +5.1617956e+02 </wgt>
<wgt id='55'> +4.8141605e+02 </wgt>
<wgt id='56'> +4.5528826e+02 </wgt>
<wgt id='57'> +5.0756765e+02 </wgt>
<wgt id='58'> +4.8128455e+02 </wgt>
<wgt id='59'> +5.3125809e+02 </wgt>
<wgt id='60'> +5.0657380e+02 </wgt>
<wgt id='61'> +4.3465116e+02 </wgt>
<wgt id='62'> +4.9323808e+02 </wgt>
<wgt id='63'> +5.1002150e+02 </wgt>
<wgt id='64'> +4.8956416e+02 </wgt>
<wgt id='65'> +5.5620123e+02 </wgt>
<wgt id='66'> +5.0024999e+02 </wgt>
<wgt id='67'> +5.0776211e+02 </wgt>
<wgt id='68'> +5.7188770e+02 </wgt>
<wgt id='69'> +5.2161270e+02 </wgt>
<wgt id='70'> +5.0165232e+02 </wgt>
<wgt id='71'> +5.0471392e+02 </wgt>
<wgt id='72'> +4.6549273e+02 </wgt>
<wgt id='73'> +4.7967597e+02 </wgt>
<wgt id='74'> +5.4761630e+02 </wgt>
<wgt id='75'> +5.2328225e+02 </wgt>
<wgt id='76'> +4.9728621e+02 </wgt>
<wgt id='77'> +4.9597163e+02 </wgt>
<wgt id='78'> +4.7022810e+02 </wgt>
<wgt id='79'> +5.0698034e+02 </wgt>
<wgt id='80'> +4.8315322e+02 </wgt>
<wgt id='81'> +4.9487901e+02 </wgt>
<wgt id='82'> +4.9358916e+02 </wgt>
<wgt id='83'> +5.1594885e+02 </wgt>
<wgt id='84'> +5.4435259e+02 </wgt>
<wgt id='85'> +5.0882357e+02 </wgt>
<wgt id='86'> +5.1588985e+02 </wgt>
<wgt id='87'> +5.0928821e+02 </wgt>
<wgt id='88'> +5.1081006e+02 </wgt>
<wgt id='89'> +5.0397769e+02 </wgt>
<wgt id='90'> +5.1028277e+02 </wgt>
<wgt id='91'> +5.0745478e+02 </wgt>
<wgt id='92'> +4.4521126e+02 </wgt>
<wgt id='93'> +5.0732994e+02 </wgt>
<wgt id='94'> +4.8107674e+02 </wgt>
<wgt id='95'> +4.9629403e+02 </wgt>
<wgt id='96'> +5.5248613e+02 </wgt>
<wgt id='97'> +4.9026076e+02 </wgt>
<wgt id='98'> +5.0123695e+02 </wgt>
<wgt id='99'> +4.6765247e+02 </wgt>
<wgt id='100'> +4.4771639e+02 </wgt>
<wgt id='101'> +5.7685370e+02 </wgt>
<wgt id='102'> +5.3827182e+02 </wgt>
<wgt id='103'> +5.4235650e+02 </wgt>
<wgt id='104'> +5.2002799e+02 </wgt>
<wgt id='105'> +5.1415205e+02 </wgt>
<wgt id='106'> +4.4982954e+02 </wgt>
<wgt id='107'> +4.6923146e+02 </wgt>
<wgt id='108'> +4.3684576e+02 </wgt>
<wgt id='109'> +4.6966747e+02 </wgt>
<wgt id='110'> +4.9158438e+02 </wgt>
<wgt id='111'> +4.8634856e+02 </wgt>
<wgt id='112'> +4.7797752e+02 </wgt>
<wgt id='113'> +4.6786564e+02 </wgt>
<wgt id='114'> +4.8621390e+02 </wgt>
<wgt id='115'> +4.6970459e+02 </wgt>
<wgt id='116'> +5.3897901e+02 </wgt>
<wgt id='117'> +4.9597527e+02 </wgt>
<wgt id='118'> +5.3883950e+02 </wgt>
<wgt id='119'> +4.9455461e+02 </wgt>
<wgt id='120'> +4.9086700e+02 </wgt>
<wgt id='121'> +4.8989760e+02 </wgt>
<wgt id='122'> +4.9632952e+02 </wgt>
<wgt id='123'> +5.0996062e+02 </wgt>
<wgt id='124'> +5.7337758e+02 </wgt>
<wgt id='125'> +5.8399062e+02 </wgt>
<wgt id='126'> +5.2338935e+02 </wgt>
<wgt id='127'> +5.1756950e+02 </wgt>
<wgt id='128'> +4.5812310e+02 </wgt>
<wgt id='129'> +5.6346774e+02 </wgt>
<wgt id='130'> +5.0474239e+02 </wgt>
<wgt id='131'> +5.1845507e+02 </wgt>
<wgt id='132'> +5.3589717e+02 </wgt>
<wgt id='133'> +5.3059159e+02 </wgt>
<wgt id='134'> +4.9527219e+02 </wgt>
<wgt id='135'> +5.0779037e+02 </wgt>
<wgt id='136'> +5.3201702e+02 </wgt>
<wgt id='137'> +4.9380206e+02 </wgt>
<wgt id='138'> +4.9281889e+02 </wgt>
<wgt id='139'> +5.2347222e+02 </wgt>
<wgt id='140'> +5.1246536e+02 </wgt>
<wgt id='141'> +5.2413753e+02 </wgt>
<wgt id='142'> +4.5437710e+02 </wgt>
<wgt id='143'> +5.1687635e+02 </wgt>
<wgt id='144'> +4.8260325e+02 </wgt>
<wgt id='145'> +4.9677261e+02 </wgt>
</rwgt>
</event>
<event>
 4      1 +5.0481800e+02 2.19834100e+02 7.54677100e-03 1.13400700e-01
       21 -1    0    0  503  502 +0.0000000000e+00 +0.0000000000e+00 +5.9345835793e+01 5.9345835793e+01 0.0000000000e+00 0.0000e+00 -1.0000e+00
       21 -1    0    0  501  503 -0.0000000000e+00 -0.0000000000e+00 -1.0341487231e+03 1.0341487231e+03 0.0000000000e+00 0.0000e+00 -1.0000e+00
        6  1    1    2  501    0 -5.7120277913e+01 -1.2302570618e+02 -7.3947553031e+02 7.7146037517e+02 1.7300000000e+02 0.0000e+00 -1.0000e+00
       -6  1    1    2    0  502 +5.7120277913e+01 +1.2302570618e+02 -2.3532735697e+02 3.2203418370e+02 1.7300000000e+02 0.0000e+00 -1.0000e+00
<mgrwt>
<rscale>  2 0.21983414E+03</rscale>
<asrwt>0</asrwt>
<pdfrwt beam="1">  1       21 0.91301286E-02 0.21983414E+03</pdfrwt>
<pdfrwt beam="2">  1       21 0.15909980E+00 0.21983414E+03</pdfrwt>
<totfact> 0.23918073E+04</totfact>
</mgrwt>
<rwgt>
<wgt id='1'> +6.6682605e+02 </wgt>
<wgt id='2'> +5.8725864e+02 </wgt>
<wgt id='3'> +5.0481800e+02 </wgt>
<wgt id='4'> +6.6682605e+02 </wgt>
<wgt id='5'> +4.8200681e+02 </wgt>
<wgt id='6'> +6.1502917e+02 </wgt>
<wgt id='7'> +5.3713785e+02 </wgt>
<wgt id='8'> +4.6025735e+02 </wgt>
<wgt id='9'> +6.1502916e+02 </wgt>
<wgt id='10'> +4.3960808e+02 </wgt>
<wgt id='11'> +5.6074011e+02 </wgt>
<wgt id='12'> +4.9012209e+02 </wgt>
<wgt id='13'> +4.2044272e+02 </wgt>
<wgt id='14'> +5.6074010e+02 </wgt>
<wgt id='15'> +4.0173655e+02 </wgt>
<wgt id='16'> +5.4733306e+02 </wgt>
<wgt id='17'> +4.8984873e+02 </wgt>
<wgt id='18'> +4.2622565e+02 </wgt>
<wgt id='19'> +5.4733305e+02 </wgt>
<wgt id='20'> +4.0792894e+02 </wgt>
<wgt id='21'> +4.4804158e+02 </wgt>
<wgt id='22'> +3.8860241e+02 </wgt>
<wgt id='23'> +5.0481800e+02 </wgt>
<wgt id='24'> +3.7204631e+02 </wgt>
<wgt id='25'> +4.6025736e+02 </wgt>
<wgt id='26'> +4.0882444e+02 </wgt>
<wgt id='27'> +3.5498630e+02 </wgt>
<wgt id='28'> +4.6025735e+02 </wgt>
<wgt id='29'> +3.3999512e+02 </wgt>
<wgt id='30'> +4.6212178e+02 </wgt>
<wgt id='31'> +4.1612695e+02 </wgt>
<wgt id='32'> +3.6463056e+02 </wgt>
<wgt id='33'> +4.6212177e+02 </wgt>
<wgt id='34'> +3.4970241e+02 </wgt>
<wgt id='35'> +4.2622566e+02 </wgt>
<wgt id='36'> +3.8061174e+02 </wgt>
<wgt id='37'> +3.3244436e+02 </wgt>
<wgt id='38'> +4.2622565e+02 </wgt>
<wgt id='39'> +3.1894156e+02 </wgt>
<wgt id='40'> +3.8860241e+02 </wgt>
<wgt id='41'> +3.4729674e+02 </wgt>
<wgt id='42'> +3.0368621e+02 </wgt>
<wgt id='43'> +3.8860241e+02 </wgt>
<wgt id='44'> +2.9146525e+02 </wgt>
<wgt id='45'> +5.0481800e+02 </wgt>
<wgt id='46'> +5.1904304e+02 </wgt>
<wgt id='47'> +5.1881002e+02 </wgt>
<wgt id='48'> +5.0529589e+02 </wgt>
<wgt id='49'> +4.7800609e+02 </wgt>
<wgt id='50'> +5.9662327e+02 </wgt>
<wgt id='51'> +4.8178584e+02 </wgt>
<wgt id='52'> +4.8818921e+02 </wgt>
<wgt id='53'> +5.0025075e+02 </wgt>
<wgt id='54'> +5.2781291e+02 </wgt>
<wgt id='55'> +5.3011238e+02 </wgt>
<wgt id='56'> +4.7211935e+02 </wgt>
<wgt id='57'> +5.2729020e+02 </wgt>
<wgt id='58'> +4.7191014e+02 </wgt>
<wgt id='59'> +5.4253682e+02 </wgt>
<wgt id='60'> +5.0745637e+02 </wgt>
<wgt id='61'> +4.5180622e+02 </wgt>
<wgt id='62'> +4.7836879e+02 </wgt>
<wgt id='63'> +5.2139008e+02 </wgt>
<wgt id='64'> +5.0177097e+02 </wgt>
<wgt id='65'> +5.0211924e+02 </wgt>
<wgt id='66'> +5.0415768e+02 </wgt>
<wgt id='67'> +5.0707262e+02 </wgt>
<wgt id='68'> +5.8595910e+02 </wgt>
<wgt id='69'> +5.2625602e+02 </wgt>
<wgt id='70'> +5.2057550e+02 </wgt>
<wgt id='71'> +4.8798549e+02 </wgt>
<wgt id='72'> +4.7557825e+02 </wgt>
<wgt id='73'> +4.6876271e+02 </wgt>
<wgt id='74'> +5.5797100e+02 </wgt>
<wgt id='75'> +5.3113720e+02 </wgt>
<wgt id='76'> +5.1251013e+02 </wgt>
<wgt id='77'> +4.8753903e+02 </wgt>
<wgt id='78'> +4.5353106e+02 </wgt>
<wgt id='79'> +5.2236794e+02 </wgt>
<wgt id='80'> +4.6659054e+02 </wgt>
<wgt id='81'> +5.0932823e+02 </wgt>
<wgt id='82'> +4.8892567e+02 </wgt>
<wgt id='83'> +5.0149954e+02 </wgt>
<wgt id='84'> +5.1287383e+02 </wgt>
<wgt id='85'> +4.7937511e+02 </wgt>
<wgt id='86'> +5.1885964e+02 </wgt>
<wgt id='87'> +5.0359088e+02 </wgt>
<wgt id='88'> +4.9620315e+02 </wgt>
<wgt id='89'> +4.6751591e+02 </wgt>
<wgt id='90'> +4.9253939e+02 </wgt>
<wgt id='91'> +4.7217013e+02 </wgt>
<wgt id='92'> +4.6902226e+02 </wgt>
<wgt id='93'> +5.0671088e+02 </wgt>
<wgt id='94'> +4.7360557e+02 </wgt>
<wgt id='95'> +5.2153462e+02 </wgt>
<wgt id='96'> +5.3040936e+02 </wgt>
<wgt id='97'> +4.7480313e+02 </wgt>
<wgt id='98'> +5.2081245e+02 </wgt>
<wgt id='99'> +4.4710552e+02 </wgt>
<wgt id='100'> +4.1998123e+02 </wgt>
<wgt id='101'> +5.7778365e+02 </wgt>
<wgt id='102'> +5.5002561e+02 </wgt>
<wgt id='103'> +5.0881681e+02 </wgt>
<wgt id='104'> +5.2649112e+02 </wgt>
<wgt id='105'> +5.1918700e+02 </wgt>
<wgt id='106'> +4.7777512e+02 </wgt>
<wgt id='107'> +4.8151801e+02 </wgt>
<wgt id='108'> +4.6123388e+02 </wgt>
<wgt id='109'> +4.9114678e+02 </wgt>
<wgt id='110'> +4.8063691e+02 </wgt>
<wgt id='111'> +4.9256737e+02 </wgt>
<wgt id='112'> +5.0653662e+02 </wgt>
<wgt id='113'> +5.0149056e+02 </wgt>
<wgt id='114'> +5.1206923e+02 </wgt>
<wgt id='115'> +4.6673650e+02 </wgt>
<wgt id='116'> +5.4140898e+02 </wgt>
<wgt id='117'> +4.9388392e+02 </wgt>
<wgt id='118'> +5.2612598e+02 </wgt>
<wgt id='119'> +5.2772168e+02 </wgt>
<wgt id='120'> +5.0202336e+02 </wgt>
<wgt id='121'> +5.0069700e+02 </wgt>
<wgt id='122'> +4.9733588e+02 </wgt>
<wgt id='123'> +4.9379205e+02 </wgt>
<wgt id='124'> +5.6742539e+02 </wgt>
<wgt id='125'> +6.0252212e+02 </wgt>
<wgt id='126'> +5.0423566e+02 </wgt>
<wgt id='127'> +4.9818363e+02 </wgt>
<wgt id='128'> +4.7279755e+02 </wgt>
<wgt id='129'> +5.3658737e+02 </wgt>
<wgt id='130'> +4.8743660e+02 </wgt>
<wgt id='131'> +4.8927772e+02 </wgt>
<wgt id='132'> +5.4876907e+02 </wgt>
<wgt id='133'> +5.3864459e+02 </wgt>
<wgt id='134'> +5.1538373e+02 </wgt>
<wgt id='135'> +4.9427922e+02 </wgt>
<wgt id='136'> +5.6964811e+02 </wgt>
<wgt id='137'> +5.0716085e+02 </wgt>
<wgt id='138'> +4.9888732e+02 </wgt>
<wgt id='139'> +5.2032614e+02 </wgt>
<wgt id='140'> +5.0112259e+02 </wgt>
<wgt id='141'> +5.4502153e+02 </wgt>
<wgt id='142'> +4.0707862e+02 </wgt>
<wgt id='143'> +5.1924000e+02 </wgt>
<wgt id='144'> +4.7381199e+02 </wgt>
<wgt id='145'> +4.7933484e+02 </wgt>
</rwgt>
</event>
<event>
 4      1 +5.0481800e+02 2.01891800e+02 7.54677100e-03 1.14815300e-01
       21 -1    0    0  501  502 +0.0000000000e+00 +0.0000000000e+00 +7.7202051635e+01 7.7202051635e+01 0.0000000000e+00 0.0000e+00 1.0000e+00
       21 -1    0    0  502  503 -0.0000000000e+00 -0.0000000000e+00 -6.2481841938e+02 6.2481841938e+02 0.0000000000e+00 0.0000e+00 1.0000e+00
        6  1    1    2  501    0 -6.4782856767e+01 +8.1452395815e+01 -1.3561368337e+02 2.4321057220e+02 1.7300000000e+02 0.0000e+00 1.0000e+00
       -6  1    1    2    0  503 +6.4782856767e+01 -8.1452395815e+01 -4.1200268437e+02 4.5880989881e+02 1.7300000000e+02 0.0000e+00 1.0000e+00
<mgrwt>
<rscale>  2 0.20189183E+03</rscale>
<asrwt>0</asrwt>
<pdfrwt beam="1">  1       21 0.11877238E-01 0.20189183E+03</pdfrwt>
<pdfrwt beam="2">  1       21 0.96125914E-01 0.20189183E+03</pdfrwt>
<totfact> 0.53610965E+04</totfact>
</mgrwt>
<rwgt>
<wgt id='1'> +6.5267705e+02 </wgt>
<wgt id='2'> +5.9275844e+02 </wgt>
<wgt id='3'> +5.0481800e+02 </wgt>
<wgt id='4'> +6.5267705e+02 </wgt>
<wgt id='5'> +4.8983286e+02 </wgt>
<wgt id='6'> +6.1797542e+02 </wgt>
<wgt id='7'> +5.5685874e+02 </wgt>
<wgt id='8'> +4.7026442e+02 </wgt>
<wgt id='9'> +6.1797542e+02 </wgt>
<wgt id='10'> +4.5631460e+02 </wgt>
<wgt id='11'> +5.7567649e+02 </wgt>
<wgt id='12'> +5.1876025e+02 </wgt>
<wgt id='13'> +4.3814097e+02 </wgt>
<wgt id='14'> +5.7567648e+02 </wgt>
<wgt id='15'> +4.2517025e+02 </wgt>
<wgt id='16'> +5.3316542e+02 </wgt>
<wgt id='17'> +4.9088104e+02 </wgt>
<wgt id='18'> +4.2550634e+02 </wgt>
<wgt id='19'> +5.3316542e+02 </wgt>
<wgt id='20'> +4.1356632e+02 </wgt>
<wgt id='21'> +4.6115142e+02 </wgt>
<wgt id='22'> +3.9638145e+02 </wgt>
<wgt id='23'> +5.0481800e+02 </wgt>
<wgt id='24'> +3.8526682e+02 </wgt>
<wgt id='25'> +4.7026442e+02 </wgt>
<wgt id='26'> +4.2960091e+02 </wgt>
<wgt id='27'> +3.6930490e+02 </wgt>
<wgt id='28'> +4.7026442e+02 </wgt>
<wgt id='29'> +3.5897162e+02 </wgt>
<wgt id='30'> +4.4940012e+02 </wgt>
<wgt id='31'> +4.1585251e+02 </wgt>
<wgt id='32'> +3.6346502e+02 </wgt>
<wgt id='33'> +4.4940012e+02 </wgt>
<wgt id='34'> +3.5379491e+02 </wgt>
<wgt id='35'> +4.2550634e+02 </wgt>
<wgt id='36'> +3.9066690e+02 </wgt>
<wgt id='37'> +3.3858671e+02 </wgt>
<wgt id='38'> +4.2550634e+02 </wgt>
<wgt id='39'> +3.2958545e+02 </wgt>
<wgt id='40'> +3.9638145e+02 </wgt>
<wgt id='41'> +3.6393872e+02 </wgt>
<wgt id='42'> +3.1545808e+02 </wgt>
<wgt id='43'> +3.9638145e+02 </wgt>
<wgt id='44'> +3.0709061e+02 </wgt>
<wgt id='45'> +5.0481800e+02 </wgt>
<wgt id='46'> +5.1360983e+02 </wgt>
<wgt id='47'> +5.1948198e+02 </wgt>
<wgt id='48'> +5.0723462e+02 </wgt>
<wgt id='49'> +4.9680209e+02 </wgt>
<wgt id='50'> +5.9452515e+02 </wgt>
<wgt id='51'> +4.9229842e+02 </wgt>
<wgt id='52'> +5.0305821e+02 </wgt>
<wgt id='53'> +5.0022286e+02 </wgt>
<wgt id='54'> +5.1286174e+02 </wgt>
<wgt id='55'> +4.7851865e+02 </wgt>
<wgt id='56'> +4.6433794e+02 </wgt>
<wgt id='57'> +5.0620106e+02 </wgt>
<wgt id='58'> +4.9596248e+02 </wgt>
<wgt id='59'> +5.2065103e+02 </wgt>
<wgt id='60'> +5.0169816e+02 </wgt>
<wgt id='61'> +4.5128082e+02 </wgt>
<wgt id='62'> +4.9463757e+02 </wgt>
<wgt id='63'> +5.0756246e+02 </wgt>
<wgt id='64'> +4.9688404e+02 </wgt>
<wgt id='65'> +5.5947298e+02 </wgt>
<wgt id='66'> +4.9617338e+02 </wgt>
<wgt id='67'> +5.0784167e+02 </wgt>
<wgt id='68'> +5.5404889e+02 </wgt>
<wgt id='69'> +5.0238567e+02 </wgt>
<wgt id='70'> +4.9975308e+02 </wgt>
<wgt id='71'> +5.0901576e+02 </wgt>
<wgt id='72'> +4.8778427e+02 </wgt>
<wgt id='73'> +4.8966316e+02 </wgt>
<wgt id='74'> +5.3200467e+02 </wgt>
<wgt id='75'> +5.1640418e+02 </wgt>
<wgt id='76'> +4.9873891e+02 </wgt>
<wgt id='77'> +4.9353110e+02 </wgt>
<wgt id='78'> +4.8478777e+02 </wgt>
<wgt id='79'> +4.9842081e+02 </wgt>
<wgt id='80'> +4.9139886e+02 </wgt>
<wgt id='81'> +4.9677687e+02 </wgt>
<wgt id='82'> +4.9970368e+02 </wgt>
<wgt id='83'> +5.0982865e+02 </wgt>
<wgt id='84'> +5.3992979e+02 </wgt>
<wgt id='85'> +5.1359204e+02 </wgt>
<wgt id='86'> +5.0669059e+02 </wgt>
<wgt id='87'> +5.0730299e+02 </wgt>
<wgt id='88'> +5.0666874e+02 </wgt>
<wgt id='89'> +5.0887285e+02 </wgt>
<wgt id='90'> +5.1255997e+02 </wgt>
<wgt id='91'> +5.1645047e+02 </wgt>
<wgt id='92'> +4.6489163e+02 </wgt>
<wgt id='93'> +5.0161406e+02 </wgt>
<wgt id='94'> +4.9207696e+02 </wgt>
<wgt id='95'> +4.9887780e+02 </wgt>
<wgt id='96'> +5.3824478e+02 </wgt>
<wgt id='97'> +4.9976259e+02 </wgt>
<wgt id='98'> +4.9425189e+02 </wgt>
<wgt id='99'> +4.7908531e+02 </wgt>
<wgt id='100'> +4.7337261e+02 </wgt>
<wgt id='101'> +5.5237387e+02 </wgt>
<wgt id='102'> +5.1578213e+02 </wgt>
<wgt id='103'> +5.4016655e+02 </wgt>
<wgt id='104'> +5.0894839e+02 </wgt>
<wgt id='105'> +5.2172233e+02 </wgt>
<wgt id='106'> +4.6463507e+02 </wgt>
<wgt id='107'> +4.8527186e+02 </wgt>
<wgt id='108'> +4.5017356e+02 </wgt>
<wgt id='109'> +4.7801145e+02 </wgt>
<wgt id='110'> +5.0032259e+02 </wgt>
<wgt id='111'> +4.9201763e+02 </wgt>
<wgt id='112'> +4.8167018e+02 </wgt>
<wgt id='113'> +4.7131358e+02 </wgt>
<wgt id='114'> +4.9797540e+02 </wgt>
<wgt id='115'> +4.8217749e+02 </wgt>
<wgt id='116'> +5.1938594e+02 </wgt>
<wgt id='117'> +5.0045852e+02 </wgt>
<wgt id='118'> +5.2595764e+02 </wgt>
<wgt id='119'> +4.9513532e+02 </wgt>
<wgt id='120'> +4.9460643e+02 </wgt>
<wgt id='121'> +4.9625625e+02 </wgt>
<wgt id='122'> +4.9931004e+02 </wgt>
<wgt id='123'> +5.0678594e+02 </wgt>
<wgt id='124'> +5.5378945e+02 </wgt>
<wgt id='125'> +5.6020277e+02 </wgt>
<wgt id='126'> +5.1858185e+02 </wgt>
<wgt id='127'> +5.1601628e+02 </wgt>
<wgt id='128'> +4.6213018e+02 </wgt>
<wgt id='129'> +5.6236697e+02 </wgt>
<wgt id='130'> +5.0022748e+02 </wgt>
<wgt id='131'> +5.2491759e+02 </wgt>
<wgt id='132'> +5.2647747e+02 </wgt>
<wgt id='133'> +5.1669528e+02 </wgt>
<wgt id='134'> +4.9105065e+02 </wgt>
<wgt id='135'> +5.1115446e+02 </wgt>
<wgt id='136'> +5.1892404e+02 </wgt>
<wgt id='137'> +4.8411282e+02 </wgt>
<wgt id='138'> +4.7310679e+02 </wgt>
<wgt id='139'> +5.1880223e+02 </wgt>
<wgt id='140'> +5.2035172e+02 </wgt>
<wgt id='141'> +5.1342163e+02 </wgt>
<wgt id='142'> +4.7795367e+02 </wgt>
<wgt id='143'> +5.1320503e+02 </wgt>
<wgt id='144'> +4.9548926e+02 </wgt>
<wgt id='145'> +5.0023472e+02 </wgt>
</rwgt>
</event>
<event>
 4      1 +5.0481800e+02 1.82323500e+02 7.54677100e-03 1.16557300e-01
       21 -1    0    0  501  502 +0.0000000000e+00 +0.0000000000e+00 +4.3815744082e+01 4.3815744082e+01 0.0000000000e+00 0.0000e+00 -1.0000e+00
       21 -1    0    0  502  503 -0.0000000000e+00 -0.0000000000e+00 -1.1276819226e+03 1.1276819226e+03 0.0000000000e+00 0.0000e+00 -1.0000e+00
        6  1    1    2  501    0 -5.5300443724e+01 +1.5959635019e+01 -2.0686258910e+02 2.7574259699e+02 1.7300000000e+02 0.0000e+00 -1.0000e+00
       -6  1    1    2    0  503 +5.5300443724e+01 -1.5959635019e+01 -8.7700358947e+02 8.9575506974e+02 1.7300000000e+02 0.0000e+00 -1.0000e+00
<mgrwt>
<rscale>  2 0.18232347E+03</rscale>
<asrwt>0</asrwt>
<pdfrwt beam="1">  1       21 0.67408832E-02 0.18232347E+03</pdfrwt>
<pdfrwt beam="2">  1       21 0.17348954E+00 0.18232347E+03</pdfrwt>
<totfact> 0.32788491E+04</totfact>
</mgrwt>
<rwgt>
<wgt id='1'> +6.6899797e+02 </wgt>
<wgt id='2'> +7.6614842e+02 </wgt>
<wgt id='3'> +5.0481800e+02 </wgt>
<wgt id='4'> +6.6899797e+02 </wgt>
<wgt id='5'> +4.6726670e+02 </wgt>
<wgt id='6'> +6.2102981e+02 </wgt>
<wgt id='7'> +7.1376289e+02 </wgt>
<wgt id='8'> +4.6092828e+02 </wgt>
<wgt id='9'> +6.2102981e+02 </wgt>
<wgt id='10'> +4.2655634e+02 </wgt>
<wgt id='11'> +5.6703645e+02 </wgt>
<wgt id='12'> +6.5593114e+02 </wgt>
<wgt id='13'> +4.2126076e+02 </wgt>
<wgt id='14'> +5.6703644e+02 </wgt>
<wgt id='15'> +3.9006615e+02 </wgt>
<wgt id='16'> +5.4381000e+02 </wgt>
<wgt id='17'> +6.1536701e+02 </wgt>
<wgt id='18'> +4.2432074e+02 </wgt>
<wgt id='19'> +5.4380999e+02 </wgt>
<wgt id='20'> +3.9460204e+02 </wgt>
<wgt id='21'> +5.7329118e+02 </wgt>
<wgt id='22'> +3.8742959e+02 </wgt>
<wgt id='23'> +5.0481800e+02 </wgt>
<wgt id='24'> +3.6022256e+02 </wgt>
<wgt id='25'> +4.6092828e+02 </wgt>
<wgt id='26'> +5.2684098e+02 </wgt>
<wgt id='27'> +3.5408737e+02 </wgt>
<wgt id='28'> +4.6092828e+02 </wgt>
<wgt id='29'> +3.2940695e+02 </wgt>
<wgt id='30'> +4.5709515e+02 </wgt>
<wgt id='31'> +5.1006948e+02 </wgt>
<wgt id='32'> +3.6178305e+02 </wgt>
<wgt id='33'> +4.5709515e+02 </wgt>
<wgt id='34'> +3.3764232e+02 </wgt>
<wgt id='35'> +4.2432074e+02 </wgt>
<wgt id='36'> +4.7519339e+02 </wgt>
<wgt id='37'> +3.3032903e+02 </wgt>
<wgt id='38'> +4.2432074e+02 </wgt>
<wgt id='39'> +3.0822542e+02 </wgt>
<wgt id='40'> +3.8742959e+02 </wgt>
<wgt id='41'> +4.3669144e+02 </wgt>
<wgt id='42'> +3.0190089e+02 </wgt>
<wgt id='43'> +3.8742959e+02 </wgt>
<wgt id='44'> +2.8185796e+02 </wgt>
<wgt id='45'> +5.0481800e+02 </wgt>
<wgt id='46'> +5.1893858e+02 </wgt>
<wgt id='47'> +5.1796866e+02 </wgt>
<wgt id='48'> +5.0413922e+02 </wgt>
<wgt id='49'> +4.7394166e+02 </wgt>
<wgt id='50'> +5.9117977e+02 </wgt>
<wgt id='51'> +4.7931717e+02 </wgt>
<wgt id='52'> +4.8360479e+02 </wgt>
<wgt id='53'> +5.0118640e+02 </wgt>
<wgt id='54'> +5.3112435e+02 </wgt>
<wgt id='55'> +5.4442936e+02 </wgt>
<wgt id='56'> +4.7689182e+02 </wgt>
<wgt id='57'> +5.3181678e+02 </wgt>
<wgt id='58'> +4.6802265e+02 </wgt>
<wgt id='59'> +5.4624037e+02 </wgt>
<wgt id='60'> +5.0896389e+02 </wgt>
<wgt id='61'> +4.5230291e+02 </wgt>
<wgt id='62'> +4.7398626e+02 </wgt>
<wgt id='63'> +5.2559183e+02 </wgt>
<wgt id='64'> +5.0407573e+02 </wgt>
<wgt id='65'> +4.8523223e+02 </wgt>
<wgt id='66'> +5.0614276e+02 </wgt>
<wgt id='67'> +5.0721423e+02 </wgt>
<wgt id='68'> +5.9338375e+02 </wgt>
<wgt id='69'> +5.3065536e+02 </wgt>
<wgt id='70'> +5.2768898e+02 </wgt>
<wgt id='71'> +4.8173592e+02 </wgt>
<wgt id='72'> +4.7379569e+02 </wgt>
<wgt id='73'> +4.6525600e+02 </wgt>
<wgt id='74'> +5.6412578e+02 </wgt>
<wgt id='75'> +5.3576290e+02 </wgt>
<wgt id='76'> +5.1569476e+02 </wgt>
<wgt id='77'> +4.8511642e+02 </wgt>
<wgt id='78'> +4.4707382e+02 </wgt>
<wgt id='79'> +5.2904470e+02 </wgt>
<wgt id='80'> +4.6048462e+02 </wgt>
<wgt id='81'> +5.1399981e+02 </wgt>
<wgt id='82'> +4.8998341e+02 </wgt>
<wgt id='83'> +4.9838440e+02 </wgt>
<wgt id='84'> +5.0416163e+02 </wgt>
<wgt id='85'> +4.7107388e+02 </wgt>
<wgt id='86'> +5.2175829e+02 </wgt>
<wgt id='87'> +5.0213141e+02 </wgt>
<wgt id='88'> +4.9263695e+02 </wgt>
<wgt id='89'> +4.5596632e+02 </wgt>
<wgt id='90'> +4.8615500e+02 </wgt>
<wgt id='91'> +4.6096202e+02 </wgt>
<wgt id='92'> +4.7237601e+02 </wgt>
<wgt id='93'> +5.0796541e+02 </wgt>
<wgt id='94'> +4.7038664e+02 </wgt>
<wgt id='95'> +5.2661481e+02 </wgt>
<wgt id='96'> +5.2770330e+02 </wgt>
<wgt id='97'> +4.6888418e+02 </wgt>
<wgt id='98'> +5.2767957e+02 </wgt>
<wgt id='99'> +4.4013818e+02 </wgt>
<wgt id='100'> +4.0915227e+02 </wgt>
<wgt id='101'> +5.8096131e+02 </wgt>
<wgt id='102'> +5.5599211e+02 </wgt>
<wgt id='103'> +4.9960599e+02 </wgt>
<wgt id='104'> +5.2981663e+02 </wgt>
<wgt id='105'> +5.1894172e+02 </wgt>
<wgt id='106'> +4.8369572e+02 </wgt>
<wgt id='107'> +4.8400031e+02 </wgt>
<wgt id='108'> +4.6627251e+02 </wgt>
<wgt id='109'> +4.9548849e+02 </wgt>
<wgt id='110'> +4.7634921e+02 </wgt>
<wgt id='111'> +4.9246864e+02 </wgt>
<wgt id='112'> +5.1432068e+02 </wgt>
<wgt id='113'> +5.1183745e+02 </wgt>
<wgt id='114'> +5.1744062e+02 </wgt>
<wgt id='115'> +4.6366428e+02 </wgt>
<wgt id='116'> +5.4483064e+02 </wgt>
<wgt id='117'> +4.9298231e+02 </wgt>
<wgt id='118'> +5.2394717e+02 </wgt>
<wgt id='119'> +5.3783585e+02 </wgt>
<wgt id='120'> +5.0310403e+02 </wgt>
<wgt id='121'> +5.0153119e+02 </wgt>
<wgt id='122'> +4.9672058e+02 </wgt>
<wgt id='123'> +4.8903537e+02 </wgt>
<wgt id='124'> +5.6762698e+02 </wgt>
<wgt id='125'> +6.1169124e+02 </wgt>
<wgt id='126'> +5.0018847e+02 </wgt>
<wgt id='127'> +4.9291164e+02 </wgt>
<wgt id='128'> +4.7687111e+02 </wgt>
<wgt id='129'> +5.2867229e+02 </wgt>
<wgt id='130'> +4.8484782e+02 </wgt>
<wgt id='131'> +4.8040973e+02 </wgt>
<wgt id='132'> +5.5228683e+02 </wgt>
<wgt id='133'> +5.4294568e+02 </wgt>
<wgt id='134'> +5.2156594e+02 </wgt>
<wgt id='135'> +4.9026116e+02 </wgt>
<wgt id='136'> +5.8073585e+02 </wgt>
<wgt id='137'> +5.1316272e+02 </wgt>
<wgt id='138'> +5.0334725e+02 </wgt>
<wgt id='139'> +5.2056629e+02 </wgt>
<wgt id='140'> +4.9747401e+02 </wgt>
<wgt id='141'> +5.5308415e+02 </wgt>
<wgt id='142'> +3.9006668e+02 </wgt>
<wgt id='143'> +5.1985069e+02 </wgt>
<wgt id='144'> +4.6961124e+02 </wgt>
<wgt id='145'> +4.7362902e+02 </wgt>
</rwgt>
</event>
<event>
 4      1 +5.0481800e+02 2.39198300e+02 7.54677100e-03 1.12032800e-01
       21 -1    0    0  501  502 +0.0000000000e+00 +0.0000000000e+00 +2.9265805650e+02 2.9265805650e+02 0.0000000000e+00 0.0000e+00 -1.0000e+00
       21 -1    0    0  502  503 -0.0000000000e+00 -0.0000000000e+00 -2.0701426802e+02 2.0701426802e+02 0.0000000000e+00 0.0000e+00 -1.0000e+00
        6  1    1    2  501    0 +1.0572641271e+02 -1.2692023431e+02 +1.0173309949e+02 2.5993353719e+02 1.7300000000e+02 0.0000e+00 -1.0000e+00
       -6  1    1    2    0  503 -1.0572641271e+02 +1.2692023431e+02 -1.6089311014e+01 2.3973878733e+02 1.7300000000e+02 0.0000e+00 -1.0000e+00
<mgrwt>
<rscale>  2 0.23919829E+03</rscale>
<asrwt>0</asrwt>
<pdfrwt beam="1">  1       21 0.45024317E-01 0.23919829E+03</pdfrwt>
<pdfrwt beam="2">  1       21 0.31848349E-01 0.23919829E+03</pdfrwt>
<totfact> 0.43904695E+04</totfact>
</mgrwt>
<rwgt>
<wgt id='1'> +6.5014573e+02 </wgt>
<wgt id='2'> +5.1190847e+02 </wgt>
<wgt id='3'> +5.0481800e+02 </wgt>
<wgt id='4'> +6.5014573e+02 </wgt>
<wgt id='5'> +4.9974191e+02 </wgt>
<wgt id='6'> +6.1225807e+02 </wgt>
<wgt id='7'> +4.7708364e+02 </wgt>
<wgt id='8'> +4.7047941e+02 </wgt>
<wgt id='9'> +6.1225807e+02 </wgt>
<wgt id='10'> +4.6575085e+02 </wgt>
<wgt id='11'> +5.7061121e+02 </wgt>
<wgt id='12'> +4.4484060e+02 </wgt>
<wgt id='13'> +4.3870407e+02 </wgt>
<wgt id='14'> +5.7061122e+02 </wgt>
<wgt id='15'> +4.3431067e+02 </wgt>
<wgt id='16'> +5.3605707e+02 </wgt>
<wgt id='17'> +4.3258299e+02 </wgt>
<wgt id='18'> +4.2693305e+02 </wgt>
<wgt id='19'> +5.3605707e+02 </wgt>
<wgt id='20'> +4.2288380e+02 </wgt>
<wgt id='21'> +4.0315463e+02 </wgt>
<wgt id='22'> +3.9789232e+02 </wgt>
<wgt id='23'> +5.0481800e+02 </wgt>
<wgt id='24'> +3.9412042e+02 </wgt>
<wgt id='25'> +4.7047940e+02 </wgt>
<wgt id='26'> +3.7590798e+02 </wgt>
<wgt id='27'> +3.7101939e+02 </wgt>
<wgt id='28'> +4.7047941e+02 </wgt>
<wgt id='29'> +3.6751560e+02 </wgt>
<wgt id='30'> +4.5335245e+02 </wgt>
<wgt id='31'> +3.7035994e+02 </wgt>
<wgt id='32'> +3.6577220e+02 </wgt>
<wgt id='33'> +4.5335245e+02 </wgt>
<wgt id='34'> +3.6248223e+02 </wgt>
<wgt id='35'> +4.2693305e+02 </wgt>
<wgt id='36'> +3.4516457e+02 </wgt>
<wgt id='37'> +3.4089174e+02 </wgt>
<wgt id='38'> +4.2693305e+02 </wgt>
<wgt id='39'> +3.3782720e+02 </wgt>
<wgt id='40'> +3.9789232e+02 </wgt>
<wgt id='41'> +3.2183710e+02 </wgt>
<wgt id='42'> +3.1786852e+02 </wgt>
<wgt id='43'> +3.9789232e+02 </wgt>
<wgt id='44'> +3.1502241e+02 </wgt>
<wgt id='45'> +5.0481800e+02 </wgt>
<wgt id='46'> +5.0727221e+02 </wgt>
<wgt id='47'> +5.2460643e+02 </wgt>
<wgt id='48'> +5.0803615e+02 </wgt>
<wgt id='49'> +5.0361595e+02 </wgt>
<wgt id='50'> +5.9619848e+02 </wgt>
<wgt id='51'> +4.9516907e+02 </wgt>
<wgt id='52'> +5.0217846e+02 </wgt>
<wgt id='53'> +5.0931479e+02 </wgt>
<wgt id='54'> +5.0773924e+02 </wgt>
<wgt id='55'> +4.5013795e+02 </wgt>
<wgt id='56'> +4.6736860e+02 </wgt>
<wgt id='57'> +4.9073597e+02 </wgt>
<wgt id='58'> +5.0567015e+02 </wgt>
<wgt id='59'> +4.9919585e+02 </wgt>
<wgt id='60'> +4.8590721e+02 </wgt>
<wgt id='61'> +4.8797624e+02 </wgt>
<wgt id='62'> +4.9880871e+02 </wgt>
<wgt id='63'> +5.0535230e+02 </wgt>
<wgt id='64'> +4.9796281e+02 </wgt>
<wgt id='65'> +5.9598708e+02 </wgt>
<wgt id='66'> +4.9360336e+02 </wgt>
<wgt id='67'> +5.0939766e+02 </wgt>
<wgt id='68'> +5.4343975e+02 </wgt>
<wgt id='69'> +4.9605361e+02 </wgt>
<wgt id='70'> +4.9601337e+02 </wgt>
<wgt id='71'> +5.1411967e+02 </wgt>
<wgt id='72'> +4.8541082e+02 </wgt>
<wgt id='73'> +4.9685350e+02 </wgt>
<wgt id='74'> +5.2242890e+02 </wgt>
<wgt id='75'> +5.1698778e+02 </wgt>
<wgt id='76'> +4.8912528e+02 </wgt>
<wgt id='77'> +4.8761207e+02 </wgt>
<wgt id='78'> +5.0272235e+02 </wgt>
<wgt id='79'> +4.8561631e+02 </wgt>
<wgt id='80'> +4.9964018e+02 </wgt>
<wgt id='81'> +4.9454579e+02 </wgt>
<wgt id='82'> +5.1740174e+02 </wgt>
<wgt id='83'> +5.1701818e+02 </wgt>
<wgt id='84'> +5.5635659e+02 </wgt>
<wgt id='85'> +5.3157555e+02 </wgt>
<wgt id='86'> +5.0331298e+02 </wgt>
<wgt id='87'> +5.0561180e+02 </wgt>
<wgt id='88'> +5.1483559e+02 </wgt>
<wgt id='89'> +5.1764217e+02 </wgt>
<wgt id='90'> +5.1089745e+02 </wgt>
<wgt id='91'> +5.3668038e+02 </wgt>
<wgt id='92'> +4.5944216e+02 </wgt>
<wgt id='93'> +4.9755773e+02 </wgt>
<wgt id='94'> +5.0027453e+02 </wgt>
<wgt id='95'> +4.8254420e+02 </wgt>
<wgt id='96'> +5.4933578e+02 </wgt>
<wgt id='97'> +5.1125142e+02 </wgt>
<wgt id='98'> +4.8207502e+02 </wgt>
<wgt id='99'> +4.8906386e+02 </wgt>
<wgt id='100'> +4.9672219e+02 </wgt>
<wgt id='101'> +5.3474601e+02 </wgt>
<wgt id='102'> +4.9429188e+02 </wgt>
<wgt id='103'> +5.5006255e+02 </wgt>
<wgt id='104'> +5.0567040e+02 </wgt>
<wgt id='105'> +5.2262268e+02 </wgt>
<wgt id='106'> +4.6018085e+02 </wgt>
<wgt id='107'> +4.9450976e+02 </wgt>
<wgt id='108'> +4.4871738e+02 </wgt>
<wgt id='109'> +4.7163642e+02 </wgt>
<wgt id='110'> +5.0462919e+02 </wgt>
<wgt id='111'> +4.9007990e+02 </wgt>
<wgt id='112'> +4.7979894e+02 </wgt>
<wgt id='113'> +4.6154051e+02 </wgt>
<wgt id='114'> +4.9951689e+02 </wgt>
<wgt id='115'> +5.0249500e+02 </wgt>
<wgt id='116'> +5.0810246e+02 </wgt>
<wgt id='117'> +5.1046133e+02 </wgt>
<wgt id='118'> +5.2069758e+02 </wgt>
<wgt id='119'> +4.8379756e+02 </wgt>
<wgt id='120'> +5.0102296e+02 </wgt>
<wgt id='121'> +4.8884415e+02 </wgt>
<wgt id='122'> +4.9765157e+02 </wgt>
<wgt id='123'> +5.1260631e+02 </wgt>
<wgt id='124'> +5.4280166e+02 </wgt>
<wgt id='125'> +5.4368869e+02 </wgt>
<wgt id='126'> +5.2607357e+02 </wgt>
<wgt id='127'> +5.2098837e+02 </wgt>
<wgt id='128'> +4.6729643e+02 </wgt>
<wgt id='129'> +5.7249181e+02 </wgt>
<wgt id='130'> +5.1025556e+02 </wgt>
<wgt id='131'> +5.4050672e+02 </wgt>
<wgt id='132'> +5.0086292e+02 </wgt>
<wgt id='133'> +5.0385989e+02 </wgt>
<wgt id='134'> +4.7508561e+02 </wgt>
<wgt id='135'> +5.1764500e+02 </wgt>
<wgt id='136'> +4.8497130e+02 </wgt>
<wgt id='137'> +4.7688081e+02 </wgt>
<wgt id='138'> +4.6293765e+02 </wgt>
<wgt id='139'> +5.1561999e+02 </wgt>
<wgt id='140'> +5.3524577e+02 </wgt>
<wgt id='141'> +5.0511541e+02 </wgt>
<wgt id='142'> +5.0525475e+02 </wgt>
<wgt id='143'> +5.0122920e+02 </wgt>
<wgt id='144'> +5.0227170e+02 </wgt>
<wgt id='145'> +5.0602318e+02 </wgt>
</rwgt>
</event>
<event>
 4      1 +5.0481800e+02 2.32595300e+02 7.54677100e-03 1.12482600e-01
       21 -1    0    0  503  502 +0.0000000000e+00 +0.0000000000e+00 +2.8005951080e+02 2.8005951080e+02 0.0000000000e+00 0.0000e+00 -1.0000e+00
       21 -1    0    0  501  503 -0.0000000000e+00 -0.0000000000e+00 -8.0698826888e+02 8.0698826888e+02 0.0000000000e+00 0.0000e+00 1.0000e+00
        6  1    1    2  501    0 +1.2524713506e+02 +9.2112555946e+01 -7.3749137157e+02 7.7330077651e+02 1.7300000000e+02 0.0000e+00 1.0000e+00
       -6  1    1    2    0  502 -1.2524713506e+02 -9.2112555946e+01 +2.1056261349e+02 3.1374700317e+02 1.7300000000e+02 0.0000e+00 -1.0000e+00
<mgrwt>
<rscale>  2 0.23259529E+03</rscale>
<asrwt>0</asrwt>
<pdfrwt beam="1">  1       21 0.43086079E-01 0.23259529E+03</pdfrwt>
<pdfrwt beam="2">  1       21 0.12415204E+00 0.23259529E+03</pdfrwt>
<totfact> 0.24298283E+03</totfact>
</mgrwt>
<rwgt>
<wgt id='1'> +6.8838467e+02 </wgt>
<wgt id='2'> +5.7481311e+02 </wgt>
<wgt id='3'> +5.0481800e+02 </wgt>
<wgt id='4'> +6.8838467e+02 </wgt>
<wgt id='5'> +3.7465333e+02 </wgt>
<wgt id='6'> +6.1315022e+02 </wgt>
<wgt id='7'> +5.0856761e+02 </wgt>
<wgt id='8'> +4.4715429e+02 </wgt>
<wgt id='9'> +6.1315022e+02 </wgt>
<wgt id='10'> +3.3362472e+02 </wgt>
<wgt id='11'> +5.4311207e+02 </wgt>
<wgt id='12'> +4.5180555e+02 </wgt>
<wgt id='13'> +3.9812190e+02 </wgt>
<wgt id='14'> +5.4311207e+02 </wgt>
<wgt id='15'> +2.9859976e+02 </wgt>
<wgt id='16'> +5.6675993e+02 </wgt>
<wgt id='17'> +4.8231847e+02 </wgt>
<wgt id='18'> +4.2668879e+02 </wgt>
<wgt id='19'> +5.6675993e+02 </wgt>
<wgt id='20'> +3.2094695e+02 </wgt>
<wgt id='21'> +4.2673270e+02 </wgt>
<wgt id='22'> +3.7794952e+02 </wgt>
<wgt id='23'> +5.0481800e+02 </wgt>
<wgt id='24'> +2.8579978e+02 </wgt>
<wgt id='25'> +4.4715428e+02 </wgt>
<wgt id='26'> +3.7910437e+02 </wgt>
<wgt id='27'> +3.3650573e+02 </wgt>
<wgt id='28'> +4.4715429e+02 </wgt>
<wgt id='29'> +2.5579563e+02 </wgt>
<wgt id='30'> +4.7904415e+02 </wgt>
<wgt id='31'> +4.1083312e+02 </wgt>
<wgt id='32'> +3.6538563e+02 </wgt>
<wgt id='33'> +4.7904415e+02 </wgt>
<wgt id='34'> +2.7801278e+02 </wgt>
<wgt id='35'> +4.2668879e+02 </wgt>
<wgt id='36'> +3.6348582e+02 </wgt>
<wgt id='37'> +3.2364882e+02 </wgt>
<wgt id='38'> +4.2668879e+02 </wgt>
<wgt id='39'> +2.4756736e+02 </wgt>
<wgt id='40'> +3.7794952e+02 </wgt>
<wgt id='41'> +3.2291658e+02 </wgt>
<wgt id='42'> +2.8815933e+02 </wgt>
<wgt id='43'> +3.7794952e+02 </wgt>
<wgt id='44'> +2.2157698e+02 </wgt>
<wgt id='45'> +5.0481800e+02 </wgt>
<wgt id='46'> +5.2782525e+02 </wgt>
<wgt id='47'> +5.2900282e+02 </wgt>
<wgt id='48'> +5.1473624e+02 </wgt>
<wgt id='49'> +4.8871065e+02 </wgt>
<wgt id='50'> +6.4286655e+02 </wgt>
<wgt id='51'> +4.8758634e+02 </wgt>
<wgt id='52'> +4.9990333e+02 </wgt>
<wgt id='53'> +4.9300545e+02 </wgt>
<wgt id='54'> +5.1951928e+02 </wgt>
<wgt id='55'> +4.8654857e+02 </wgt>
<wgt id='56'> +4.5046590e+02 </wgt>
<wgt id='57'> +5.1154373e+02 </wgt>
<wgt id='58'> +4.7512391e+02 </wgt>
<wgt id='59'> +5.3948186e+02 </wgt>
<wgt id='60'> +5.1031863e+02 </wgt>
<wgt id='61'> +4.2445253e+02 </wgt>
<wgt id='62'> +4.9070446e+02 </wgt>
<wgt id='63'> +5.1226786e+02 </wgt>
<wgt id='64'> +4.8819663e+02 </wgt>
<wgt id='65'> +5.5096727e+02 </wgt>
<wgt id='66'> +5.0034960e+02 </wgt>
<wgt id='67'> +5.0747962e+02 </wgt>
<wgt id='68'> +5.8274722e+02 </wgt>
<wgt id='69'> +5.2734222e+02 </wgt>
<wgt id='70'> +5.0250300e+02 </wgt>
<wgt id='71'> +5.0159226e+02 </wgt>
<wgt id='72'> +4.5945122e+02 </wgt>
<wgt id='73'> +4.7453402e+02 </wgt>
<wgt id='74'> +5.5609956e+02 </wgt>
<wgt id='75'> +5.2627350e+02 </wgt>
<wgt id='76'> +4.9846671e+02 </wgt>
<wgt id='77'> +4.9641210e+02 </wgt>
<wgt id='78'> +4.6149523e+02 </wgt>
<wgt id='79'> +5.1114719e+02 </wgt>
<wgt id='80'> +4.7728593e+02 </wgt>
<wgt id='81'> +4.9449504e+02 </wgt>
<wgt id='82'> +4.8877534e+02 </wgt>
<wgt id='83'> +5.1592956e+02 </wgt>
<wgt id='84'> +5.4380054e+02 </wgt>
<wgt id='85'> +5.0468797e+02 </wgt>
<wgt id='86'> +5.1896924e+02 </wgt>
<wgt id='87'> +5.1034355e+02 </wgt>
<wgt id='88'> +5.0892688e+02 </wgt>
<wgt id='89'> +5.0057259e+02 </wgt>
<wgt id='90'> +5.0954477e+02 </wgt>
<wgt id='91'> +5.0041946e+02 </wgt>
<wgt id='92'> +4.3868500e+02 </wgt>
<wgt id='93'> +5.0923248e+02 </wgt>
<wgt id='94'> +4.7570908e+02 </wgt>
<wgt id='95'> +4.9918285e+02 </wgt>
<wgt id='96'> +5.5670277e+02 </wgt>
<wgt id='97'> +4.8478598e+02 </wgt>
<wgt id='98'> +5.0392296e+02 </wgt>
<wgt id='99'> +4.6052091e+02 </wgt>
<wgt id='100'> +4.3365923e+02 </wgt>
<wgt id='101'> +5.9045323e+02 </wgt>
<wgt id='102'> +5.4923592e+02 </wgt>
<wgt id='103'> +5.4329187e+02 </wgt>
<wgt id='104'> +5.2352721e+02 </wgt>
<wgt id='105'> +5.1359700e+02 </wgt>
<wgt id='106'> +4.4491126e+02 </wgt>
<wgt id='107'> +4.6287223e+02 </wgt>
<wgt id='108'> +4.3036924e+02 </wgt>
<wgt id='109'> +4.6772177e+02 </wgt>
<wgt id='110'> +4.8830720e+02 </wgt>
<wgt id='111'> +4.8442853e+02 </wgt>
<wgt id='112'> +4.7788522e+02 </wgt>
<wgt id='113'> +4.6723633e+02 </wgt>
<wgt id='114'> +4.8467555e+02 </wgt>
<wgt id='115'> +4.6092440e+02 </wgt>
<wgt id='116'> +5.4737849e+02 </wgt>
<wgt id='117'> +4.9293965e+02 </wgt>
<wgt id='118'> +5.4458550e+02 </wgt>
<wgt id='119'> +4.9768623e+02 </wgt>
<wgt id='120'> +4.8960823e+02 </wgt>
<wgt id='121'> +4.9000477e+02 </wgt>
<wgt id='122'> +4.9562147e+02 </wgt>
<wgt id='123'> +5.0917601e+02 </wgt>
<wgt id='124'> +5.8469941e+02 </wgt>
<wgt id='125'> +5.9893829e+02 </wgt>
<wgt id='126'> +5.2353065e+02 </wgt>
<wgt id='127'> +5.1750864e+02 </wgt>
<wgt id='128'> +4.5354468e+02 </wgt>
<wgt id='129'> +5.6582804e+02 </wgt>
<wgt id='130'> +5.0122266e+02 </wgt>
<wgt id='131'> +5.1443793e+02 </wgt>
<wgt id='132'> +5.4504433e+02 </wgt>
<wgt id='133'> +5.3808843e+02 </wgt>
<wgt id='134'> +4.9806805e+02 </wgt>
<wgt id='135'> +5.0604523e+02 </wgt>
<wgt id='136'> +5.4424885e+02 </wgt>
<wgt id='137'> +4.9550271e+02 </wgt>
<wgt id='138'> +4.9653026e+02 </wgt>
<wgt id='139'> +5.2665370e+02 </wgt>
<wgt id='140'> +5.0926262e+02 </wgt>
<wgt id='141'> +5.2951738e+02 </wgt>
<wgt id='142'> +4.3824263e+02 </wgt>
<wgt id='143'> +5.2009470e+02 </wgt>
<wgt id='144'> +4.7703340e+02 </wgt>
<wgt id='145'> +4.9296288e+02 </wgt>
</rwgt>
</event>
<event>
 4      1 +5.0481800e+02 2.03920100e+02 7.54677100e-03 1.14647300e-01
       21 -1    0    0  503  502 +0.0000000000e+00 +0.0000000000e+00 +2.6364377504e+03 2.6364377504e+03 0.0000000000e+00 0.0000e+00 -1.0000e+00
       21 -1    0    0  501  503 -0.0000000000e+00 -0.0000000000e+00 -1.9866134895e+01 1.9866134895e+01 0.0000000000e+00 0.0000e+00 -1.0000e+00
        6  1    1    2  501    0 -9.0368667069e+01 +5.9058442042e+01 +7.0539039412e+02 7.3427447435e+02 1.7300000000e+02 0.0000e+00 -1.0000e+00
       -6  1    1    2    0  502 +9.0368667069e+01 -5.9058442042e+01 +1.9111812214e+03 1.9220294110e+03 1.7300000000e+02 0.0000e+00 -1.0000e+00
<mgrwt>
<rscale>  2 0.20392007E+03</rscale>
<asrwt>0</asrwt>
<pdfrwt beam="1">  1       21 0.40560553E+00 0.20392007E+03</pdfrwt>
<pdfrwt beam="2">  1       21 0.30563305E-02 0.20392007E+03</pdfrwt>
<totfact> 0.48583549E+03</totfact>
</mgrwt>
<rwgt>
<wgt id='1'> +7.3964383e+02 </wgt>
<wgt id='2'> +7.0901710e+02 </wgt>
<wgt id='3'> +5.0481800e+02 </wgt>
<wgt id='4'> +7.3964383e+02 </wgt>
<wgt id='5'> +4.7527395e+02 </wgt>
<wgt id='6'> +6.1763651e+02 </wgt>
<wgt id='7'> +5.9183998e+02 </wgt>
<wgt id='8'> +4.2191734e+02 </wgt>
<wgt id='9'> +6.1763650e+02 </wgt>
<wgt id='10'> +3.9824232e+02 </wgt>
<wgt id='11'> +5.1620892e+02 </wgt>
<wgt id='12'> +4.9544460e+02 </wgt>
<wgt id='13'> +3.5764435e+02 </wgt>
<wgt id='14'> +5.1620891e+02 </wgt>
<wgt id='15'> +3.3831442e+02 </wgt>
<wgt id='16'> +6.0453926e+02 </wgt>
<wgt id='17'> +5.8191118e+02 </wgt>
<wgt id='18'> +4.2559981e+02 </wgt>
<wgt id='19'> +6.0453926e+02 </wgt>
<wgt id='20'> +4.0158709e+02 </wgt>
<wgt id='21'> +4.8574046e+02 </wgt>
<wgt id='22'> +3.5570828e+02 </wgt>
<wgt id='23'> +5.0481800e+02 </wgt>
<wgt id='24'> +3.3649850e+02 </wgt>
<wgt id='25'> +4.2191734e+02 </wgt>
<wgt id='26'> +4.0662595e+02 </wgt>
<wgt id='27'> +3.0152128e+02 </wgt>
<wgt id='28'> +4.2191734e+02 </wgt>
<wgt id='29'> +2.8586187e+02 </wgt>
<wgt id='30'> +5.0967239e+02 </wgt>
<wgt id='31'> +4.9130180e+02 </wgt>
<wgt id='32'> +3.6361038e+02 </wgt>
<wgt id='33'> +5.0967239e+02 </wgt>
<wgt id='34'> +3.4379357e+02 </wgt>
<wgt id='35'> +4.2559981e+02 </wgt>
<wgt id='36'> +4.1010583e+02 </wgt>
<wgt id='37'> +3.0389868e+02 </wgt>
<wgt id='38'> +4.2559981e+02 </wgt>
<wgt id='39'> +2.8807206e+02 </wgt>
<wgt id='40'> +3.5570828e+02 </wgt>
<wgt id='41'> +3.4331023e+02 </wgt>
<wgt id='42'> +2.5760412e+02 </wgt>
<wgt id='43'> +3.5570828e+02 </wgt>
<wgt id='44'> +2.4472269e+02 </wgt>
<wgt id='45'> +5.0481800e+02 </wgt>
<wgt id='46'> +5.0756148e+02 </wgt>
<wgt id='47'> +6.3849355e+02 </wgt>
<wgt id='48'> +4.8794724e+02 </wgt>
<wgt id='49'> +4.1715825e+02 </wgt>
<wgt id='50'> +6.7833766e+02 </wgt>
<wgt id='51'> +5.3439366e+02 </wgt>
<wgt id='52'> +3.8256161e+02 </wgt>
<wgt id='53'> +6.1067194e+02 </wgt>
<wgt id='54'> +5.2148986e+02 </wgt>
<wgt id='55'> +6.5325989e+02 </wgt>
<wgt id='56'> +4.7921217e+02 </wgt>
<wgt id='57'> +5.9670961e+02 </wgt>
<wgt id='58'> +3.9950111e+02 </wgt>
<wgt id='59'> +5.7301967e+02 </wgt>
<wgt id='60'> +4.9994444e+02 </wgt>
<wgt id='61'> +3.7332896e+02 </wgt>
<wgt id='62'> +4.2040233e+02 </wgt>
<wgt id='63'> +5.4470621e+02 </wgt>
<wgt id='64'> +5.0743005e+02 </wgt>
<wgt id='65'> +3.5264810e+02 </wgt>
<wgt id='66'> +4.9919716e+02 </wgt>
<wgt id='67'> +4.6922579e+02 </wgt>
<wgt id='68'> +8.6558769e+02 </wgt>
<wgt id='69'> +6.0890756e+02 </wgt>
<wgt id='70'> +7.8239687e+02 </wgt>
<wgt id='71'> +4.2590215e+02 </wgt>
<wgt id='72'> +3.8285069e+02 </wgt>
<wgt id='73'> +3.8777595e+02 </wgt>
<wgt id='74'> +7.6330687e+02 </wgt>
<wgt id='75'> +6.4991472e+02 </wgt>
<wgt id='76'> +4.6955991e+02 </wgt>
<wgt id='77'> +4.0139040e+02 </wgt>
<wgt id='78'> +4.1225367e+02 </wgt>
<wgt id='79'> +5.6908225e+02 </wgt>
<wgt id='80'> +2.9433374e+02 </wgt>
<wgt id='81'> +5.6852511e+02 </wgt>
<wgt id='82'> +4.6340171e+02 </wgt>
<wgt id='83'> +5.0733570e+02 </wgt>
<wgt id='84'> +3.7202256e+02 </wgt>
<wgt id='85'> +4.2011375e+02 </wgt>
<wgt id='86'> +5.1145514e+02 </wgt>
<wgt id='87'> +4.4203039e+02 </wgt>
<wgt id='88'> +5.7102432e+02 </wgt>
<wgt id='89'> +2.5673070e+02 </wgt>
<wgt id='90'> +3.8148660e+02 </wgt>
<wgt id='91'> +3.4177957e+02 </wgt>
<wgt id='92'> +4.4746873e+02 </wgt>
<wgt id='93'> +5.6777599e+02 </wgt>
<wgt id='94'> +3.6473448e+02 </wgt>
<wgt id='95'> +5.2725196e+02 </wgt>
<wgt id='96'> +4.2864924e+02 </wgt>
<wgt id='97'> +4.0499318e+02 </wgt>
<wgt id='98'> +6.8122310e+02 </wgt>
<wgt id='99'> +3.6033558e+02 </wgt>
<wgt id='100'> +2.9380102e+02 </wgt>
<wgt id='101'> +6.8252410e+02 </wgt>
<wgt id='102'> +6.5886079e+02 </wgt>
<wgt id='103'> +4.1139944e+02 </wgt>
<wgt id='104'> +5.6371728e+02 </wgt>
<wgt id='105'> +5.4240902e+02 </wgt>
<wgt id='106'> +5.1153648e+02 </wgt>
<wgt id='107'> +5.4165187e+02 </wgt>
<wgt id='108'> +4.5366246e+02 </wgt>
<wgt id='109'> +5.4050100e+02 </wgt>
<wgt id='110'> +3.1450550e+02 </wgt>
<wgt id='111'> +4.6518881e+02 </wgt>
<wgt id='112'> +5.1986091e+02 </wgt>
<wgt id='113'> +6.6517231e+02 </wgt>
<wgt id='114'> +3.4004016e+02 </wgt>
<wgt id='115'> +4.7990324e+02 </wgt>
<wgt id='116'> +6.2425604e+02 </wgt>
<wgt id='117'> +5.5394974e+02 </wgt>
<wgt id='118'> +5.1161760e+02 </wgt>
<wgt id='119'> +5.1790735e+02 </wgt>
<wgt id='120'> +4.5006947e+02 </wgt>
<wgt id='121'> +4.4849739e+02 </wgt>
<wgt id='122'> +4.3567756e+02 </wgt>
<wgt id='123'> +4.2302496e+02 </wgt>
<wgt id='124'> +5.8609576e+02 </wgt>
<wgt id='125'> +8.6859274e+02 </wgt>
<wgt id='126'> +4.7395432e+02 </wgt>
<wgt id='127'> +4.5876832e+02 </wgt>
<wgt id='128'> +5.0540077e+02 </wgt>
<wgt id='129'> +4.6652982e+02 </wgt>
<wgt id='130'> +4.3040548e+02 </wgt>
<wgt id='131'> +4.0798827e+02 </wgt>
<wgt id='132'> +5.3406599e+02 </wgt>
<wgt id='133'> +5.4174494e+02 </wgt>
<wgt id='134'> +6.3487399e+02 </wgt>
<wgt id='135'> +4.7802066e+02 </wgt>
<wgt id='136'> +6.7242884e+02 </wgt>
<wgt id='137'> +5.9565547e+02 </wgt>
<wgt id='138'> +6.3514467e+02 </wgt>
<wgt id='139'> +5.5317058e+02 </wgt>
<wgt id='140'> +4.6137482e+02 </wgt>
<wgt id='141'> +7.6815524e+02 </wgt>
<wgt id='142'> +2.0671877e+02 </wgt>
<wgt id='143'> +5.4471891e+02 </wgt>
<wgt id='144'> +4.1877490e+02 </wgt>
<wgt id='145'> +4.0636855e+02 </wgt>
</rwgt>
</event>
<event>
 4      1 +5.0481800e+02 1.84009200e+02 7.54677100e-03 1.16397800e-01
       21 -1    0    0  503  502 +0.0000000000e+00 +0.0000000000e+00 +3.1441872063e+02 3.1441872063e+02 0.0000000000e+00 0.0000e+00 -1.0000e+00
       21 -1    0    0  501  503 -0.0000000000e+00 -0.0000000000e+00 -1.7488828876e+02 1.7488828876e+02 0.0000000000e+00 0.0000e+00 -1.0000e+00
        6  1    1    2  501    0 -1.7404497550e+01 +6.0228341621e+01 -8.1888869298e+01 2.0140793575e+02 1.7300000000e+02 0.0000e+00 -1.0000e+00
       -6  1    1    2    0  502 +1.7404497550e+01 -6.0228341621e+01 +2.2141930117e+02 2.8789907364e+02 1.7300000000e+02 0.0000e+00 -1.0000e+00
<mgrwt>
<rscale>  2 0.18400916E+03</rscale>
<asrwt>0</asrwt>
<pdfrwt beam="1">  1       21 0.48372111E-01 0.18400916E+03</pdfrwt>
<pdfrwt beam="2">  1       21 0.26905891E-01 0.18400916E+03</pdfrwt>
<totfact> 0.53921662E+04</totfact>
</mgrwt>
<rwgt>
<wgt id='1'> +6.5204999e+02 </wgt>
<wgt id='2'> +6.3075503e+02 </wgt>
<wgt id='3'> +5.0481800e+02 </wgt>
<wgt id='4'> +6.5205000e+02 </wgt>
<wgt id='5'> +4.6332084e+02 </wgt>
<wgt id='6'> +6.2078459e+02 </wgt>
<wgt id='7'> +5.9914102e+02 </wgt>
<wgt id='8'> +4.7204554e+02 </wgt>
<wgt id='9'> +6.2078460e+02 </wgt>
<wgt id='10'> +4.3301888e+02 </wgt>
<wgt id='11'> +5.8048365e+02 </wgt>
<wgt id='12'> +5.5991980e+02 </wgt>
<wgt id='13'> +4.4119021e+02 </wgt>
<wgt id='14'> +5.8048366e+02 </wgt>
<wgt id='15'> +4.0478146e+02 </wgt>
<wgt id='16'> +5.3024282e+02 </wgt>
<wgt id='17'> +5.1511529e+02 </wgt>
<wgt id='18'> +4.2444054e+02 </wgt>
<wgt id='19'> +5.3024283e+02 </wgt>
<wgt id='20'> +3.9167947e+02 </wgt>
<wgt id='21'> +4.8929724e+02 </wgt>
<wgt id='22'> +3.9688613e+02 </wgt>
<wgt id='23'> +5.0481800e+02 </wgt>
<wgt id='24'> +3.6606298e+02 </wgt>
<wgt id='25'> +4.7204554e+02 </wgt>
<wgt id='26'> +4.5726667e+02 </wgt>
<wgt id='27'> +3.7094360e+02 </wgt>
<wgt id='28'> +4.7204554e+02 </wgt>
<wgt id='29'> +3.4219180e+02 </wgt>
<wgt id='30'> +4.4581720e+02 </wgt>
<wgt id='31'> +4.3413567e+02 </wgt>
<wgt id='32'> +3.6194592e+02 </wgt>
<wgt id='33'> +4.4581720e+02 </wgt>
<wgt id='34'> +3.3545351e+02 </wgt>
<wgt id='35'> +4.2444053e+02 </wgt>
<wgt id='36'> +4.1237640e+02 </wgt>
<wgt id='37'> +3.3844862e+02 </wgt>
<wgt id='38'> +4.2444054e+02 </wgt>
<wgt id='39'> +3.1351429e+02 </wgt>
<wgt id='40'> +3.9688613e+02 </wgt>
<wgt id='41'> +3.8538124e+02 </wgt>
<wgt id='42'> +3.1632587e+02 </wgt>
<wgt id='43'> +3.9688613e+02 </wgt>
<wgt id='44'> +2.9306984e+02 </wgt>
<wgt id='45'> +5.0481800e+02 </wgt>
<wgt id='46'> +5.0554561e+02 </wgt>
<wgt id='47'> +5.2355118e+02 </wgt>
<wgt id='48'> +5.0685645e+02 </wgt>
<wgt id='49'> +5.0398485e+02 </wgt>
<wgt id='50'> +5.9260751e+02 </wgt>
<wgt id='51'> +4.9508778e+02 </wgt>
<wgt id='52'> +5.0223414e+02 </wgt>
<wgt id='53'> +5.1041359e+02 </wgt>
<wgt id='54'> +5.0764183e+02 </wgt>
<wgt id='55'> +4.4958385e+02 </wgt>
<wgt id='56'> +4.6835540e+02 </wgt>
<wgt id='57'> +4.9073195e+02 </wgt>
<wgt id='58'> +5.0774947e+02 </wgt>
<wgt id='59'> +4.9764593e+02 </wgt>
<wgt id='60'> +4.8437021e+02 </wgt>
<wgt id='61'> +4.9085878e+02 </wgt>
<wgt id='62'> +4.9846460e+02 </wgt>
<wgt id='63'> +5.0516240e+02 </wgt>
<wgt id='64'> +4.9940365e+02 </wgt>
<wgt id='65'> +5.9750590e+02 </wgt>
<wgt id='66'> +4.9267305e+02 </wgt>
<wgt id='67'> +5.0938890e+02 </wgt>
<wgt id='68'> +5.4174707e+02 </wgt>
<wgt id='69'> +4.9304472e+02 </wgt>
<wgt id='70'> +4.9595168e+02 </wgt>
<wgt id='71'> +5.1456028e+02 </wgt>
<wgt id='72'> +4.8899352e+02 </wgt>
<wgt id='73'> +4.9795320e+02 </wgt>
<wgt id='74'> +5.2064429e+02 </wgt>
<wgt id='75'> +5.1631133e+02 </wgt>
<wgt id='76'> +4.8934612e+02 </wgt>
<wgt id='77'> +4.8647163e+02 </wgt>
<wgt id='78'> +5.0473756e+02 </wgt>
<wgt id='79'> +4.8402692e+02 </wgt>
<wgt id='80'> +5.0031996e+02 </wgt>
<wgt id='81'> +4.9491838e+02 </wgt>
<wgt id='82'> +5.1861074e+02 </wgt>
<wgt id='83'> +5.1605180e+02 </wgt>
<wgt id='84'> +5.5598659e+02 </wgt>
<wgt id='85'> +5.3225976e+02 </wgt>
<wgt id='86'> +5.0189628e+02 </wgt>
<wgt id='87'> +5.0512424e+02 </wgt>
<wgt id='88'> +5.1407742e+02 </wgt>
<wgt id='89'> +5.1775327e+02 </wgt>
<wgt id='90'> +5.1085928e+02 </wgt>
<wgt id='91'> +5.3786274e+02 </wgt>
<wgt id='92'> +4.6215855e+02 </wgt>
<wgt id='93'> +4.9640833e+02 </wgt>
<wgt id='94'> +5.0172272e+02 </wgt>
<wgt id='95'> +4.8313900e+02 </wgt>
<wgt id='96'> +5.4743694e+02 </wgt>
<wgt id='97'> +5.1257476e+02 </wgt>
<wgt id='98'> +4.8101123e+02 </wgt>
<wgt id='99'> +4.9001996e+02 </wgt>
<wgt id='100'> +5.0013471e+02 </wgt>
<wgt id='101'> +5.3169649e+02 </wgt>
<wgt id='102'> +4.9080151e+02 </wgt>
<wgt id='103'> +5.4989717e+02 </wgt>
<wgt id='104'> +5.0425223e+02 </wgt>
<wgt id='105'> +5.2443071e+02 </wgt>
<wgt id='106'> +4.6233836e+02 </wgt>
<wgt id='107'> +4.9739070e+02 </wgt>
<wgt id='108'> +4.5029898e+02 </wgt>
<wgt id='109'> +4.7291438e+02 </wgt>
<wgt id='110'> +5.0568767e+02 </wgt>
<wgt id='111'> +4.9091690e+02 </wgt>
<wgt id='112'> +4.8058784e+02 </wgt>
<wgt id='113'> +4.6198239e+02 </wgt>
<wgt id='114'> +5.0230042e+02 </wgt>
<wgt id='115'> +5.0487737e+02 </wgt>
<wgt id='116'> +5.0523674e+02 </wgt>
<wgt id='117'> +5.1142980e+02 </wgt>
<wgt id='118'> +5.1861240e+02 </wgt>
<wgt id='119'> +4.8423078e+02 </wgt>
<wgt id='120'> +5.0218258e+02 </wgt>
<wgt id='121'> +4.8990475e+02 </wgt>
<wgt id='122'> +4.9798180e+02 </wgt>
<wgt id='123'> +5.1186872e+02 </wgt>
<wgt id='124'> +5.4044615e+02 </wgt>
<wgt id='125'> +5.4134986e+02 </wgt>
<wgt id='126'> +5.2518249e+02 </wgt>
<wgt id='127'> +5.2056279e+02 </wgt>
<wgt id='128'> +4.6764549e+02 </wgt>
<wgt id='129'> +5.7321411e+02 </wgt>
<wgt id='130'> +5.0932407e+02 </wgt>
<wgt id='131'> +5.4162119e+02 </wgt>
<wgt id='132'> +4.9943604e+02 </wgt>
<wgt id='133'> +5.0179335e+02 </wgt>
<wgt id='134'> +4.7409494e+02 </wgt>
<wgt id='135'> +5.1823590e+02 </wgt>
<wgt id='136'> +4.8346104e+02 </wgt>
<wgt id='137'> +4.7508049e+02 </wgt>
<wgt id='138'> +4.5910385e+02 </wgt>
<wgt id='139'> +5.1506963e+02 </wgt>
<wgt id='140'> +5.3701793e+02 </wgt>
<wgt id='141'> +5.0400962e+02 </wgt>
<wgt id='142'> +5.0804434e+02 </wgt>
<wgt id='143'> +5.0039104e+02 </wgt>
<wgt id='144'> +5.0399052e+02 </wgt>
<wgt id='145'> +5.0614671e+02 </wgt>
</rwgt>
</event>
<event>
 4      1 +5.0481800e+02 2.39195800e+02 7.54677100e-03 1.12033000e-01
        2 -1    0    0  502    0 +0.0000000000e+00 +0.0000000000e+00 +2.7076957510e+03 2.7076957510e+03 0.0000000000e+00 0.0000e+00 -1.0000e+00
       -2 -1    0    0    0  501 -0.0000000000e+00 -0.0000000000e+00 -2.2745469433e+01 2.2745469433e+01 0.0000000000e+00 0.0000e+00 1.0000e+00
        6  1    1    2  502    0 +1.3774212666e+02 +9.1174323931e+01 +9.7868314255e+02 1.0074896249e+03 1.7300000000e+02 0.0000e+00 1.0000e+00
       -6  1    1    2    0  501 -1.3774212666e+02 -9.1174323931e+01 +1.7062671390e+03 1.7229515955e+03 1.7300000000e+02 0.0000e+00 -1.0000e+00
<mgrwt>
<rscale>  2 0.23919584E+03</rscale>
<asrwt>0</asrwt>
<pdfrwt beam="1">  1        2 0.41656832E+00 0.23919584E+03</pdfrwt>
<pdfrwt beam="2">  1       -2 0.34993051E-02 0.23919584E+03</pdfrwt>
<totfact> 0.10390767E+03</totfact>
</mgrwt>
<rwgt>
<wgt id='1'> +6.2998096e+02 </wgt>
<wgt id='2'> +5.6338640e+02 </wgt>
<wgt id='3'> +5.0481800e+02 </wgt>
<wgt id='4'> +6.2998096e+02 </wgt>
<wgt id='5'> +4.9935351e+02 </wgt>
<wgt id='6'> +6.1225839e+02 </wgt>
<wgt id='7'> +5.4660217e+02 </wgt>
<wgt id='8'> +4.8895129e+02 </wgt>
<wgt id='9'> +6.1225839e+02 </wgt>
<wgt id='10'> +4.8358317e+02 </wgt>
<wgt id='11'> +5.9301477e+02 </wgt>
<wgt id='12'> +5.2873828e+02 </wgt>
<wgt id='13'> +4.7242967e+02 </wgt>
<wgt id='14'> +5.9301477e+02 </wgt>
<wgt id='15'> +4.6719486e+02 </wgt>
<wgt id='16'> +5.1943058e+02 </wgt>
<wgt id='17'> +4.7211729e+02 </wgt>
<wgt id='18'> +4.2693296e+02 </wgt>
<wgt id='19'> +5.1943058e+02 </wgt>
<wgt id='20'> +4.2262445e+02 </wgt>
<wgt id='21'> +4.5805213e+02 </wgt>
<wgt id='22'> +4.1351422e+02 </wgt>
<wgt id='23'> +5.0481800e+02 </wgt>
<wgt id='24'> +4.0927733e+02 </wgt>
<wgt id='25'> +4.8895129e+02 </wgt>
<wgt id='26'> +4.4308220e+02 </wgt>
<wgt id='27'> +3.9954161e+02 </wgt>
<wgt id='28'> +4.8895129e+02 </wgt>
<wgt id='29'> +3.9540720e+02 </wgt>
<wgt id='30'> +4.3929106e+02 </wgt>
<wgt id='31'> +4.0187336e+02 </wgt>
<wgt id='32'> +3.6577206e+02 </wgt>
<wgt id='33'> +4.3929106e+02 </wgt>
<wgt id='34'> +3.6231127e+02 </wgt>
<wgt id='35'> +4.2693296e+02 </wgt>
<wgt id='36'> +3.8990088e+02 </wgt>
<wgt id='37'> +3.5427564e+02 </wgt>
<wgt id='38'> +4.2693296e+02 </wgt>
<wgt id='39'> +3.5086893e+02 </wgt>
<wgt id='40'> +4.1351422e+02 </wgt>
<wgt id='41'> +3.7715825e+02 </wgt>
<wgt id='42'> +3.4230470e+02 </wgt>
<wgt id='43'> +4.1351422e+02 </wgt>
<wgt id='44'> +3.3897822e+02 </wgt>
<wgt id='45'> +5.0481800e+02 </wgt>
<wgt id='46'> +5.1319091e+02 </wgt>
<wgt id='47'> +4.8757188e+02 </wgt>
<wgt id='48'> +4.8467897e+02 </wgt>
<wgt id='49'> +4.9649072e+02 </wgt>
<wgt id='50'> +4.3946895e+02 </wgt>
<wgt id='51'> +4.7997519e+02 </wgt>
<wgt id='52'> +4.9369359e+02 </wgt>
<wgt id='53'> +5.2571274e+02 </wgt>
<wgt id='54'> +5.0506038e+02 </wgt>
<wgt id='55'> +4.8164755e+02 </wgt>
<wgt id='56'> +5.1559932e+02 </wgt>
<wgt id='57'> +4.8206384e+02 </wgt>
<wgt id='58'> +5.4710730e+02 </wgt>
<wgt id='59'> +4.6423839e+02 </wgt>
<wgt id='60'> +5.2607735e+02 </wgt>
<wgt id='61'> +5.5310326e+02 </wgt>
<wgt id='62'> +5.1030374e+02 </wgt>
<wgt id='63'> +5.0308867e+02 </wgt>
<wgt id='64'> +4.9459381e+02 </wgt>
<wgt id='65'> +4.8264284e+02 </wgt>
<wgt id='66'> +4.9771639e+02 </wgt>
<wgt id='67'> +5.2166748e+02 </wgt>
<wgt id='68'> +4.5098931e+02 </wgt>
<wgt id='69'> +4.9386919e+02 </wgt>
<wgt id='70'> +5.1646515e+02 </wgt>
<wgt id='71'> +5.1173482e+02 </wgt>
<wgt id='72'> +5.4716648e+02 </wgt>
<wgt id='73'> +5.3316183e+02 </wgt>
<wgt id='74'> +4.5355017e+02 </wgt>
<wgt id='75'> +4.7774310e+02 </wgt>
<wgt id='76'> +5.3657308e+02 </wgt>
<wgt id='77'> +4.9243799e+02 </wgt>
<wgt id='78'> +5.3289311e+02 </wgt>
<wgt id='79'> +5.0613700e+02 </wgt>
<wgt id='80'> +5.4496310e+02 </wgt>
<wgt id='81'> +5.1704900e+02 </wgt>
<wgt id='82'> +5.0948553e+02 </wgt>
<wgt id='83'> +5.0700650e+02 </wgt>
<wgt id='84'> +5.0737225e+02 </wgt>
<wgt id='85'> +5.0068959e+02 </wgt>
<wgt id='86'> +5.1090344e+02 </wgt>
<wgt id='87'> +5.1121267e+02 </wgt>
<wgt id='88'> +5.0548864e+02 </wgt>
<wgt id='89'> +5.3002189e+02 </wgt>
<wgt id='90'> +5.3732891e+02 </wgt>
<wgt id='91'> +4.6133018e+02 </wgt>
<wgt id='92'> +5.4271905e+02 </wgt>
<wgt id='93'> +4.9299449e+02 </wgt>
<wgt id='94'> +5.2619799e+02 </wgt>
<wgt id='95'> +5.0107499e+02 </wgt>
<wgt id='96'> +4.8323715e+02 </wgt>
<wgt id='97'> +5.3301036e+02 </wgt>
<wgt id='98'> +5.1430644e+02 </wgt>
<wgt id='99'> +5.4453889e+02 </wgt>
<wgt id='100'> +5.0579258e+02 </wgt>
<wgt id='101'> +4.5218383e+02 </wgt>
<wgt id='102'> +4.8577358e+02 </wgt>
<wgt id='103'> +4.9490857e+02 </wgt>
<wgt id='104'> +4.9786118e+02 </wgt>
<wgt id='105'> +5.0645823e+02 </wgt>
<wgt id='106'> +5.5610495e+02 </wgt>
<wgt id='107'> +5.0071104e+02 </wgt>
<wgt id='108'> +5.3590040e+02 </wgt>
<wgt id='109'> +4.9917691e+02 </wgt>
<wgt id='110'> +5.3900900e+02 </wgt>
<wgt id='111'> +5.2688094e+02 </wgt>
<wgt id='112'> +5.0959523e+02 </wgt>
<wgt id='113'> +5.2066170e+02 </wgt>
<wgt id='114'> +4.9792786e+02 </wgt>
<wgt id='115'> +5.0724553e+02 </wgt>
<wgt id='116'> +4.5391785e+02 </wgt>
<wgt id='117'> +4.8522266e+02 </wgt>
<wgt id='118'> +4.9698078e+02 </wgt>
<wgt id='119'> +5.2252451e+02 </wgt>
<wgt id='120'> +5.0944700e+02 </wgt>
<wgt id='121'> +5.1292283e+02 </wgt>
<wgt id='122'> +5.1474417e+02 </wgt>
<wgt id='123'> +5.2977609e+02 </wgt>
<wgt id='124'> +4.5644111e+02 </wgt>
<wgt id='125'> +4.1612580e+02 </wgt>
<wgt id='126'> +5.1221584e+02 </wgt>
<wgt id='127'> +5.0173431e+02 </wgt>
<wgt id='128'> +4.9644993e+02 </wgt>
<wgt id='129'> +4.7268286e+02 </wgt>
<wgt id='130'> +4.9793918e+02 </wgt>
<wgt id='131'> +5.0201955e+02 </wgt>
<wgt id='132'> +4.8776689e+02 </wgt>
<wgt id='133'> +4.9878077e+02 </wgt>
<wgt id='134'> +4.9315989e+02 </wgt>
<wgt id='135'> +4.8260781e+02 </wgt>
<wgt id='136'> +5.1151383e+02 </wgt>
<wgt id='137'> +5.3829808e+02 </wgt>
<wgt id='138'> +5.0975919e+02 </wgt>
<wgt id='139'> +5.0230004e+02 </wgt>
<wgt id='140'> +5.0132227e+02 </wgt>
<wgt id='141'> +4.8007433e+02 </wgt>
<wgt id='142'> +5.4596659e+02 </wgt>
<wgt id='143'> +5.1605544e+02 </wgt>
<wgt id='144'> +5.3448439e+02 </wgt>
<wgt id='145'> +5.4266540e+02 </wgt>
</rwgt>
</event>
<event>
 4      1 +5.0481800e+02 2.42384700e+02 7.54677100e-03 1.11821400e-01
       21 -1    0    0  501  502 +0.0000000000e+00 +0.0000000000e+00 +4.3072294979e+02 4.3072294979e+02 0.0000000000e+00 0.0000e+00 -1.0000e+00
       21 -1    0    0  502  503 -0.0000000000e+00 -0.0000000000e+00 -2.9489824190e+02 2.9489824190e+02 0.0000000000e+00 0.0000e+00 1.0000e+00
        6  1    1    2  501    0 +1.6732615835e+02 +2.8692997002e+01 +3.3389725401e+02 4.1259872465e+02 1.7300000000e+02 0.0000e+00 -1.0000e+00
       -6  1    1    2    0  503 -1.6732615835e+02 -2.8692997002e+01 -1.9807254612e+02 3.1302246704e+02 1.7300000000e+02 0.0000e+00 1.0000e+00
<mgrwt>
<rscale>  2 0.24238468E+03</rscale>
<asrwt>0</asrwt>
<pdfrwt beam="1">  1       21 0.66265069E-01 0.24238468E+03</pdfrwt>
<pdfrwt beam="2">  1       21 0.45368960E-01 0.24238468E+03</pdfrwt>
<totfact> 0.94323824E+03</totfact>
</mgrwt>
<rwgt>
<wgt id='1'> +6.6804877e+02 </wgt>
<wgt id='2'> +5.4968231e+02 </wgt>
<wgt id='3'> +5.0481800e+02 </wgt>
<wgt id='4'> +6.6804878e+02 </wgt>
<wgt id='5'> +4.3539974e+02 </wgt>
<wgt id='6'> +6.1183882e+02 </wgt>
<wgt id='7'> +4.9943942e+02 </wgt>
<wgt id='8'> +4.5908374e+02 </wgt>
<wgt id='9'> +6.1183883e+02 </wgt>
<wgt id='10'> +3.9658230e+02 </wgt>
<wgt id='11'> +5.5640895e+02 </wgt>
<wgt id='12'> +4.5509150e+02 </wgt>
<wgt id='13'> +4.1871306e+02 </wgt>
<wgt id='14'> +5.5640896e+02 </wgt>
<wgt id='15'> +3.6233276e+02 </wgt>
<wgt id='16'> +5.5119589e+02 </wgt>
<wgt id='17'> +4.6295306e+02 </wgt>
<wgt id='18'> +4.2704737e+02 </wgt>
<wgt id='19'> +5.5119589e+02 </wgt>
<wgt id='20'> +3.7107391e+02 </wgt>
<wgt id='21'> +4.2063753e+02 </wgt>
<wgt id='22'> +3.8835878e+02 </wgt>
<wgt id='23'> +5.0481800e+02 </wgt>
<wgt id='24'> +3.3799134e+02 </wgt>
<wgt id='25'> +4.5908374e+02 </wgt>
<wgt id='26'> +3.8328685e+02 </wgt>
<wgt id='27'> +3.5420747e+02 </wgt>
<wgt id='28'> +4.5908374e+02 </wgt>
<wgt id='29'> +3.0880182e+02 </wgt>
<wgt id='30'> +4.6628043e+02 </wgt>
<wgt id='31'> +3.9521676e+02 </wgt>
<wgt id='32'> +3.6595390e+02 </wgt>
<wgt id='33'> +4.6628043e+02 </wgt>
<wgt id='34'> +3.2001684e+02 </wgt>
<wgt id='35'> +4.2704737e+02 </wgt>
<wgt id='36'> +3.5909256e+02 </wgt>
<wgt id='37'> +3.3280011e+02 </wgt>
<wgt id='38'> +4.2704737e+02 </wgt>
<wgt id='39'> +2.9148619e+02 </wgt>
<wgt id='40'> +3.8835878e+02 </wgt>
<wgt id='41'> +3.2720679e+02 </wgt>
<wgt id='42'> +3.0353450e+02 </wgt>
<wgt id='43'> +3.8835878e+02 </wgt>
<wgt id='44'> +2.6631294e+02 </wgt>
<wgt id='45'> +5.0481800e+02 </wgt>
<wgt id='46'> +5.1793621e+02 </wgt>
<wgt id='47'> +5.2932240e+02 </wgt>
<wgt id='48'> +5.1397768e+02 </wgt>
<wgt id='49'> +5.0139959e+02 </wgt>
<wgt id='50'> +6.2492220e+02 </wgt>
<wgt id='51'> +4.9447849e+02 </wgt>
<wgt id='52'> +5.0484317e+02 </wgt>
<wgt id='53'> +5.0010785e+02 </wgt>
<wgt id='54'> +5.0896527e+02 </wgt>
<wgt id='55'> +4.5338177e+02 </wgt>
<wgt id='56'> +4.5538700e+02 </wgt>
<wgt id='57'> +4.9391269e+02 </wgt>
<wgt id='58'> +4.9509404e+02 </wgt>
<wgt id='59'> +5.1424456e+02 </wgt>
<wgt id='60'> +4.9815011e+02 </wgt>
<wgt id='61'> +4.5925129e+02 </wgt>
<wgt id='62'> +4.9956781e+02 </wgt>
<wgt id='63'> +5.0555705e+02 </wgt>
<wgt id='64'> +4.8891005e+02 </wgt>
<wgt id='65'> +5.8920147e+02 </wgt>
<wgt id='66'> +4.9561496e+02 </wgt>
<wgt id='67'> +5.0900036e+02 </wgt>
<wgt id='68'> +5.5841245e+02 </wgt>
<wgt id='69'> +5.0871616e+02 </wgt>
<wgt id='70'> +4.9455897e+02 </wgt>
<wgt id='71'> +5.1298643e+02 </wgt>
<wgt id='72'> +4.6968517e+02 </wgt>
<wgt id='73'> +4.9066557e+02 </wgt>
<wgt id='74'> +5.3530848e+02 </wgt>
<wgt id='75'> +5.1963543e+02 </wgt>
<wgt id='76'> +4.8858512e+02 </wgt>
<wgt id='77'> +4.9433902e+02 </wgt>
<wgt id='78'> +4.8828113e+02 </wgt>
<wgt id='79'> +4.9367660e+02 </wgt>
<wgt id='80'> +4.9381089e+02 </wgt>
<wgt id='81'> +4.9093425e+02 </wgt>
<wgt id='82'> +5.0791005e+02 </wgt>
<wgt id='83'> +5.2060843e+02 </wgt>
<wgt id='84'> +5.5920804e+02 </wgt>
<wgt id='85'> +5.2822348e+02 </wgt>
<wgt id='86'> +5.0975864e+02 </wgt>
<wgt id='87'> +5.0948893e+02 </wgt>
<wgt id='88'> +5.1578184e+02 </wgt>
<wgt id='89'> +5.2079403e+02 </wgt>
<wgt id='90'> +5.1530702e+02 </wgt>
<wgt id='91'> +5.3025940e+02 </wgt>
<wgt id='92'> +4.4328525e+02 </wgt>
<wgt id='93'> +5.0348299e+02 </wgt>
<wgt id='94'> +4.9172397e+02 </wgt>
<wgt id='95'> +4.8177432e+02 </wgt>
<wgt id='96'> +5.6027910e+02 </wgt>
<wgt id='97'> +5.0335938e+02 </wgt>
<wgt id='98'> +4.8624220e+02 </wgt>
<wgt id='99'> +4.8256132e+02 </wgt>
<wgt id='100'> +4.7592208e+02 </wgt>
<wgt id='101'> +5.5939982e+02 </wgt>
<wgt id='102'> +5.1531655e+02 </wgt>
<wgt id='103'> +5.5729857e+02 </wgt>
<wgt id='104'> +5.1142636e+02 </wgt>
<wgt id='105'> +5.1657910e+02 </wgt>
<wgt id='106'> +4.4522466e+02 </wgt>
<wgt id='107'> +4.7677802e+02 </wgt>
<wgt id='108'> +4.3281454e+02 </wgt>
<wgt id='109'> +4.6298994e+02 </wgt>
<wgt id='110'> +5.0054663e+02 </wgt>
<wgt id='111'> +4.8476031e+02 </wgt>
<wgt id='112'> +4.7035332e+02 </wgt>
<wgt id='113'> +4.5514019e+02 </wgt>
<wgt id='114'> +4.8365240e+02 </wgt>
<wgt id='115'> +4.8145975e+02 </wgt>
<wgt id='116'> +5.2495232e+02 </wgt>
<wgt id='117'> +5.0245255e+02 </wgt>
<wgt id='118'> +5.3508786e+02 </wgt>
<wgt id='119'> +4.8095630e+02 </wgt>
<wgt id='120'> +4.8887915e+02 </wgt>
<wgt id='121'> +4.8545001e+02 </wgt>
<wgt id='122'> +4.9619760e+02 </wgt>
<wgt id='123'> +5.1494083e+02 </wgt>
<wgt id='124'> +5.6303721e+02 </wgt>
<wgt id='125'> +5.6341253e+02 </wgt>
<wgt id='126'> +5.3060823e+02 </wgt>
<wgt id='127'> +5.2526018e+02 </wgt>
<wgt id='128'> +4.5633244e+02 </wgt>
<wgt id='129'> +5.7740591e+02 </wgt>
<wgt id='130'> +5.1013433e+02 </wgt>
<wgt id='131'> +5.3709574e+02 </wgt>
<wgt id='132'> +5.1731436e+02 </wgt>
<wgt id='133'> +5.1705840e+02 </wgt>
<wgt id='134'> +4.8012855e+02 </wgt>
<wgt id='135'> +5.1655203e+02 </wgt>
<wgt id='136'> +5.0050139e+02 </wgt>
<wgt id='137'> +4.8168692e+02 </wgt>
<wgt id='138'> +4.7567199e+02 </wgt>
<wgt id='139'> +5.2206949e+02 </wgt>
<wgt id='140'> +5.2671050e+02 </wgt>
<wgt id='141'> +5.1005162e+02 </wgt>
<wgt id='142'> +4.8563818e+02 </wgt>
<wgt id='143'> +5.0956867e+02 </wgt>
<wgt id='144'> +4.9370156e+02 </wgt>
<wgt id='145'> +5.0547696e+02 </wgt>
</rwgt>
</event>
<event>
 4      1 +5.0481800e+02 1.82846700e+02 7.54677100e-03 1.16507600e-01
       21 -1    0    0  501  502 +0.0000000000e+00 +0.0000000000e+00 +5.8271366729e+01 5.8271366729e+01 0.0000000000e+00 0.0000e+00 1.0000e+00
       21 -1    0    0  502  503 -0.0000000000e+00 -0.0000000000e+00 -5.7498219827e+02 5.7498219827e+02 0.0000000000e+00 0.0000e+00 1.0000e+00
        6  1    1    2  501    0 -5.9103482596e+01 +3.2720645413e+00 -2.4367049721e+02 3.0464444730e+02 1.7300000000e+02 0.0000e+00 1.0000e+00
       -6  1    1    2    0  503 +5.9103482596e+01 -3.2720645413e+00 -2.7304033433e+02 3.2860911769e+02 1.7300000000e+02 0.0000e+00 1.0000e+00
<mgrwt>
<rscale>  2 0.18284673E+03</rscale>
<asrwt>0</asrwt>
<pdfrwt beam="1">  1       21 0.89648255E-02 0.18284673E+03</pdfrwt>
<pdfrwt beam="2">  1       21 0.88458801E-01 0.18284673E+03</pdfrwt>
<totfact> 0.10794961E+05</totfact>
</mgrwt>
<rwgt>
<wgt id='1'> +6.4581399e+02 </wgt>
<wgt id='2'> +7.0995569e+02 </wgt>
<wgt id='3'> +5.0481800e+02 </wgt>
<wgt id='4'> +6.4581399e+02 </wgt>
<wgt id='5'> +5.0463057e+02 </wgt>
<wgt id='6'> +6.2095412e+02 </wgt>
<wgt id='7'> +6.8575558e+02 </wgt>
<wgt id='8'> +4.7592175e+02 </wgt>
<wgt id='9'> +6.2095411e+02 </wgt>
<wgt id='10'> +4.7573889e+02 </wgt>
<wgt id='11'> +5.8541014e+02 </wgt>
<wgt id='12'> +6.5025321e+02 </wgt>
<wgt id='13'> +4.4790851e+02 </wgt>
<wgt id='14'> +5.8541013e+02 </wgt>
<wgt id='15'> +4.4773592e+02 </wgt>
<wgt id='16'> +5.2502837e+02 </wgt>
<wgt id='17'> +5.7145533e+02 </wgt>
<wgt id='18'> +4.2435828e+02 </wgt>
<wgt id='19'> +5.2502836e+02 </wgt>
<wgt id='20'> +4.2421477e+02 </wgt>
<wgt id='21'> +5.5197625e+02 </wgt>
<wgt id='22'> +4.0006762e+02 </wgt>
<wgt id='23'> +5.0481800e+02 </wgt>
<wgt id='24'> +3.9992714e+02 </wgt>
<wgt id='25'> +4.7592176e+02 </wgt>
<wgt id='26'> +5.2339979e+02 </wgt>
<wgt id='27'> +3.7651923e+02 </wgt>
<wgt id='28'> +4.7592175e+02 </wgt>
<wgt id='29'> +3.7638661e+02 </wgt>
<wgt id='30'> +4.4134745e+02 </wgt>
<wgt id='31'> +4.7527007e+02 </wgt>
<wgt id='32'> +3.6183397e+02 </wgt>
<wgt id='33'> +4.4134745e+02 </wgt>
<wgt id='34'> +3.6171871e+02 </wgt>
<wgt id='35'> +4.2435828e+02 </wgt>
<wgt id='36'> +4.5906964e+02 </wgt>
<wgt id='37'> +3.4112227e+02 </wgt>
<wgt id='38'> +4.2435828e+02 </wgt>
<wgt id='39'> +3.4100918e+02 </wgt>
<wgt id='40'> +4.0006763e+02 </wgt>
<wgt id='41'> +4.3530307e+02 </wgt>
<wgt id='42'> +3.2104346e+02 </wgt>
<wgt id='43'> +4.0006762e+02 </wgt>
<wgt id='44'> +3.2093668e+02 </wgt>
<wgt id='45'> +5.0481800e+02 </wgt>
<wgt id='46'> +5.1143348e+02 </wgt>
<wgt id='47'> +5.1773577e+02 </wgt>
<wgt id='48'> +5.0662984e+02 </wgt>
<wgt id='49'> +4.9908210e+02 </wgt>
<wgt id='50'> +5.8570921e+02 </wgt>
<wgt id='51'> +4.9364669e+02 </wgt>
<wgt id='52'> +5.0414360e+02 </wgt>
<wgt id='53'> +5.0102110e+02 </wgt>
<wgt id='54'> +5.1119321e+02 </wgt>
<wgt id='55'> +4.7618011e+02 </wgt>
<wgt id='56'> +4.6715117e+02 </wgt>
<wgt id='57'> +5.0444767e+02 </wgt>
<wgt id='58'> +5.0061461e+02 </wgt>
<wgt id='59'> +5.1738152e+02 </wgt>
<wgt id='60'> +5.0168041e+02 </wgt>
<wgt id='61'> +4.5645590e+02 </wgt>
<wgt id='62'> +4.9597765e+02 </wgt>
<wgt id='63'> +5.0679088e+02 </wgt>
<wgt id='64'> +4.9804147e+02 </wgt>
<wgt id='65'> +5.5964220e+02 </wgt>
<wgt id='66'> +4.9540307e+02 </wgt>
<wgt id='67'> +5.0795825e+02 </wgt>
<wgt id='68'> +5.4945931e+02 </wgt>
<wgt id='69'> +4.9790675e+02 </wgt>
<wgt id='70'> +4.9926630e+02 </wgt>
<wgt id='71'> +5.1040085e+02 </wgt>
<wgt id='72'> +4.9244105e+02 </wgt>
<wgt id='73'> +4.9338301e+02 </wgt>
<wgt id='74'> +5.2793375e+02 </wgt>
<wgt id='75'> +5.1471035e+02 </wgt>
<wgt id='76'> +4.9808269e+02 </wgt>
<wgt id='77'> +4.9372439e+02 </wgt>
<wgt id='78'> +4.8938297e+02 </wgt>
<wgt id='79'> +4.9658402e+02 </wgt>
<wgt id='80'> +4.9401703e+02 </wgt>
<wgt id='81'> +4.9709686e+02 </wgt>
<wgt id='82'> +5.0247213e+02 </wgt>
<wgt id='83'> +5.0875727e+02 </wgt>
<wgt id='84'> +5.3897147e+02 </wgt>
<wgt id='85'> +5.1609141e+02 </wgt>
<wgt id='86'> +5.0453468e+02 </wgt>
<wgt id='87'> +5.0710342e+02 </wgt>
<wgt id='88'> +5.0573618e+02 </wgt>
<wgt id='89'> +5.1165228e+02 </wgt>
<wgt id='90'> +5.1356749e+02 </wgt>
<wgt id='91'> +5.1993886e+02 </wgt>
<wgt id='92'> +4.6905892e+02 </wgt>
<wgt id='93'> +5.0076375e+02 </wgt>
<wgt id='94'> +4.9546853e+02 </wgt>
<wgt id='95'> +4.9764689e+02 </wgt>
<wgt id='96'> +5.3575410e+02 </wgt>
<wgt id='97'> +5.0260748e+02 </wgt>
<wgt id='98'> +4.9160883e+02 </wgt>
<wgt id='99'> +4.8368083e+02 </wgt>
<wgt id='100'> +4.8194657e+02 </wgt>
<wgt id='101'> +5.4603091e+02 </wgt>
<wgt id='102'> +5.0998257e+02 </wgt>
<wgt id='103'> +5.4048372e+02 </wgt>
<wgt id='104'> +5.0593798e+02 </wgt>
<wgt id='105'> +5.2266809e+02 </wgt>
<wgt id='106'> +4.6777700e+02 </wgt>
<wgt id='107'> +4.8931556e+02 </wgt>
<wgt id='108'> +4.5317149e+02 </wgt>
<wgt id='109'> +4.7932758e+02 </wgt>
<wgt id='110'> +5.0307878e+02 </wgt>
<wgt id='111'> +4.9272626e+02 </wgt>
<wgt id='112'> +4.8178407e+02 </wgt>
<wgt id='113'> +4.7163367e+02 </wgt>
<wgt id='114'> +4.9895932e+02 </wgt>
<wgt id='115'> +4.8472254e+02 </wgt>
<wgt id='116'> +5.1466209e+02 </wgt>
<wgt id='117'> +5.0148135e+02 </wgt>
<wgt id='118'> +5.2315176e+02 </wgt>
<wgt id='119'> +4.9405084e+02 </wgt>
<wgt id='120'> +4.9411188e+02 </wgt>
<wgt id='121'> +4.9714809e+02 </wgt>
<wgt id='122'> +5.0002215e+02 </wgt>
<wgt id='123'> +5.0635457e+02 </wgt>
<wgt id='124'> +5.4839470e+02 </wgt>
<wgt id='125'> +5.5320510e+02 </wgt>
<wgt id='126'> +5.1838955e+02 </wgt>
<wgt id='127'> +5.1636813e+02 </wgt>
<wgt id='128'> +4.6313103e+02 </wgt>
<wgt id='129'> +5.6194830e+02 </wgt>
<wgt id='130'> +4.9877547e+02 </wgt>
<wgt id='131'> +5.2709894e+02 </wgt>
<wgt id='132'> +5.2314273e+02 </wgt>
<wgt id='133'> +5.1305226e+02 </wgt>
<wgt id='134'> +4.8965780e+02 </wgt>
<wgt id='135'> +5.1249991e+02 </wgt>
<wgt id='136'> +5.1358474e+02 </wgt>
<wgt id='137'> +4.8184864e+02 </wgt>
<wgt id='138'> +4.6889092e+02 </wgt>
<wgt id='139'> +5.1793995e+02 </wgt>
<wgt id='140'> +5.2250064e+02 </wgt>
<wgt id='141'> +5.0974959e+02 </wgt>
<wgt id='142'> +4.8458769e+02 </wgt>
<wgt id='143'> +5.1229671e+02 </wgt>
<wgt id='144'> +4.9937640e+02 </wgt>
<wgt id='145'> +5.0191126e+02 </wgt>
</rwgt>
</event>
<event>
 4      1 +5.0481800e+02 1.95328300e+02 7.54677100e-03 1.15374100e-01
       21 -1    0    0  501  502 +0.0000000000e+00 +0.0000000000e+00 +1.1158330522e+03 1.1158330522e+03 0.0000000000e+00 0.0000e+00 1.0000e+00
       21 -1    0    0  502  503 -0.0000000000e+00 -0.0000000000e+00 -3.9162479096e+01 3.9162479096e+01 0.0000000000e+00 0.0000e+00 1.0000e+00
        6  1    1    2  501    0 +5.9070486705e+01 -6.8810163217e+01 +7.4406212946e+02 7.6927343218e+02 1.7300000000e+02 0.0000e+00 -1.0000e+00
       -6  1    1    2    0  503 -5.9070486705e+01 +6.8810163217e+01 +3.3260844362e+02 3.8572209910e+02 1.7300000000e+02 0.0000e+00 -1.0000e+00
<mgrwt>
<rscale>  2 0.19532834E+03</rscale>
<asrwt>0</asrwt>
<pdfrwt beam="1">  1       21 0.17166660E+00 0.19532834E+03</pdfrwt>
<pdfrwt beam="2">  1       21 0.60249976E-02 0.19532834E+03</pdfrwt>
<totfact> 0.40599773E+04</totfact>
</mgrwt>
<rwgt>
<wgt id='1'> +6.6507838e+02 </wgt>
<wgt id='2'> +6.6618850e+02 </wgt>
<wgt id='3'> +5.0481800e+02 </wgt>
<wgt id='4'> +6.6507838e+02 </wgt>
<wgt id='5'> +4.9182540e+02 </wgt>
<wgt id='6'> +6.1905064e+02 </wgt>
<wgt id='7'> +6.2014784e+02 </wgt>
<wgt id='8'> +4.6246919e+02 </wgt>
<wgt id='9'> +6.1905064e+02 </wgt>
<wgt id='10'> +4.5054813e+02 </wgt>
<wgt id='11'> +5.6711894e+02 </wgt>
<wgt id='12'> +5.6813350e+02 </wgt>
<wgt id='13'> +4.2417162e+02 </wgt>
<wgt id='14'> +5.6711894e+02 </wgt>
<wgt id='15'> +4.1330440e+02 </wgt>
<wgt id='16'> +5.4235230e+02 </wgt>
<wgt id='17'> +5.4314696e+02 </wgt>
<wgt id='18'> +4.2516604e+02 </wgt>
<wgt id='19'> +5.4235229e+02 </wgt>
<wgt id='20'> +4.1485843e+02 </wgt>
<wgt id='21'> +5.0560977e+02 </wgt>
<wgt id='22'> +3.8949917e+02 </wgt>
<wgt id='23'> +5.0481800e+02 </wgt>
<wgt id='24'> +3.8004075e+02 </wgt>
<wgt id='25'> +4.6246919e+02 </wgt>
<wgt id='26'> +4.6320221e+02 </wgt>
<wgt id='27'> +3.5724433e+02 </wgt>
<wgt id='28'> +4.6246919e+02 </wgt>
<wgt id='29'> +3.4862538e+02 </wgt>
<wgt id='30'> +4.5677804e+02 </wgt>
<wgt id='31'> +4.5739818e+02 </wgt>
<wgt id='32'> +3.6295764e+02 </wgt>
<wgt id='33'> +4.5677804e+02 </wgt>
<wgt id='34'> +3.5459128e+02 </wgt>
<wgt id='35'> +4.2516604e+02 </wgt>
<wgt id='36'> +4.2578714e+02 </wgt>
<wgt id='37'> +3.3250939e+02 </wgt>
<wgt id='38'> +4.2516604e+02 </wgt>
<wgt id='39'> +3.2483161e+02 </wgt>
<wgt id='40'> +3.8949917e+02 </wgt>
<wgt id='41'> +3.9007463e+02 </wgt>
<wgt id='42'> +3.0497393e+02 </wgt>
<wgt id='43'> +3.8949917e+02 </wgt>
<wgt id='44'> +2.9798001e+02 </wgt>
<wgt id='45'> +5.0481800e+02 </wgt>
<wgt id='46'> +5.1884689e+02 </wgt>
<wgt id='47'> +5.1743375e+02 </wgt>
<wgt id='48'> +5.0415715e+02 </wgt>
<wgt id='49'> +4.7465511e+02 </wgt>
<wgt id='50'> +5.8881291e+02 </wgt>
<wgt id='51'> +4.7992001e+02 </wgt>
<wgt id='52'> +4.8409597e+02 </wgt>
<wgt id='53'> +5.0084171e+02 </wgt>
<wgt id='54'> +5.3061526e+02 </wgt>
<wgt id='55'> +5.4444528e+02 </wgt>
<wgt id='56'> +4.7747943e+02 </wgt>
<wgt id='57'> +5.3158527e+02 </wgt>
<wgt id='58'> +4.6884595e+02 </wgt>
<wgt id='59'> +5.4603031e+02 </wgt>
<wgt id='60'> +5.0992311e+02 </wgt>
<wgt id='61'> +4.5259691e+02 </wgt>
<wgt id='62'> +4.7463936e+02 </wgt>
<wgt id='63'> +5.2524695e+02 </wgt>
<wgt id='64'> +5.0415631e+02 </wgt>
<wgt id='65'> +4.8433389e+02 </wgt>
<wgt id='66'> +5.0615133e+02 </wgt>
<wgt id='67'> +5.0703796e+02 </wgt>
<wgt id='68'> +5.9184015e+02 </wgt>
<wgt id='69'> +5.2991881e+02 </wgt>
<wgt id='70'> +5.2740775e+02 </wgt>
<wgt id='71'> +4.8204123e+02 </wgt>
<wgt id='72'> +4.7463254e+02 </wgt>
<wgt id='73'> +4.6614636e+02 </wgt>
<wgt id='74'> +5.6317247e+02 </wgt>
<wgt id='75'> +5.3505783e+02 </wgt>
<wgt id='76'> +5.1553308e+02 </wgt>
<wgt id='77'> +4.8583716e+02 </wgt>
<wgt id='78'> +4.4788691e+02 </wgt>
<wgt id='79'> +5.2908107e+02 </wgt>
<wgt id='80'> +4.6118338e+02 </wgt>
<wgt id='81'> +5.1384380e+02 </wgt>
<wgt id='82'> +4.8975454e+02 </wgt>
<wgt id='83'> +4.9808708e+02 </wgt>
<wgt id='84'> +5.0345792e+02 </wgt>
<wgt id='85'> +4.7151811e+02 </wgt>
<wgt id='86'> +5.2137144e+02 </wgt>
<wgt id='87'> +5.0228093e+02 </wgt>
<wgt id='88'> +4.9251042e+02 </wgt>
<wgt id='89'> +4.5705719e+02 </wgt>
<wgt id='90'> +4.8680553e+02 </wgt>
<wgt id='91'> +4.6155864e+02 </wgt>
<wgt id='92'> +4.7300799e+02 </wgt>
<wgt id='93'> +5.0818804e+02 </wgt>
<wgt id='94'> +4.7089668e+02 </wgt>
<wgt id='95'> +5.2645407e+02 </wgt>
<wgt id='96'> +5.2675684e+02 </wgt>
<wgt id='97'> +4.6933893e+02 </wgt>
<wgt id='98'> +5.2736371e+02 </wgt>
<wgt id='99'> +4.4156628e+02 </wgt>
<wgt id='100'> +4.1090146e+02 </wgt>
<wgt id='101'> +5.7987337e+02 </wgt>
<wgt id='102'> +5.5546125e+02 </wgt>
<wgt id='103'> +4.9963539e+02 </wgt>
<wgt id='104'> +5.2911205e+02 </wgt>
<wgt id='105'> +5.1863516e+02 </wgt>
<wgt id='106'> +4.8426957e+02 </wgt>
<wgt id='107'> +4.8428515e+02 </wgt>
<wgt id='108'> +4.6699447e+02 </wgt>
<wgt id='109'> +4.9593885e+02 </wgt>
<wgt id='110'> +4.7700820e+02 </wgt>
<wgt id='111'> +4.9262312e+02 </wgt>
<wgt id='112'> +5.1401097e+02 </wgt>
<wgt id='113'> +5.1204602e+02 </wgt>
<wgt id='114'> +5.1681543e+02 </wgt>
<wgt id='115'> +4.6378145e+02 </wgt>
<wgt id='116'> +5.4423743e+02 </wgt>
<wgt id='117'> +4.9288688e+02 </wgt>
<wgt id='118'> +5.2375852e+02 </wgt>
<wgt id='119'> +5.3725478e+02 </wgt>
<wgt id='120'> +5.0273667e+02 </wgt>
<wgt id='121'> +5.0193270e+02 </wgt>
<wgt id='122'> +4.9690831e+02 </wgt>
<wgt id='123'> +4.8911272e+02 </wgt>
<wgt id='124'> +5.6647633e+02 </wgt>
<wgt id='125'> +6.0977705e+02 </wgt>
<wgt id='126'> +5.0032829e+02 </wgt>
<wgt id='127'> +4.9314194e+02 </wgt>
<wgt id='128'> +4.7698228e+02 </wgt>
<wgt id='129'> +5.2794348e+02 </wgt>
<wgt id='130'> +4.8461344e+02 </wgt>
<wgt id='131'> +4.8066305e+02 </wgt>
<wgt id='132'> +5.5205955e+02 </wgt>
<wgt id='133'> +5.4245712e+02 </wgt>
<wgt id='134'> +5.2174773e+02 </wgt>
<wgt id='135'> +4.9050285e+02 </wgt>
<wgt id='136'> +5.8009315e+02 </wgt>
<wgt id='137'> +5.1299778e+02 </wgt>
<wgt id='138'> +5.0341662e+02 </wgt>
<wgt id='139'> +5.2052306e+02 </wgt>
<wgt id='140'> +4.9727320e+02 </wgt>
<wgt id='141'> +5.5206940e+02 </wgt>
<wgt id='142'> +3.9214109e+02 </wgt>
<wgt id='143'> +5.2001980e+02 </wgt>
<wgt id='144'> +4.7032257e+02 </wgt>
<wgt id='145'> +4.7412516e+02 </wgt>
</rwgt>
</event>
<event>
 4      1 +5.0481800e+02 1.81112900e+02 7.54677100e-03 1.16673000e-01
       21 -1    0    0  503  502 +0.0000000000e+00 +0.0000000000e+00 +1.2442854170e+03 1.2442854170e+03 0.0000000000e+00 0.0000e+00 -1.0000e+00
       21 -1    0    0  501  503 -0.0000000000e+00 -0.0000000000e+00 -2.6650247167e+01 2.6650247167e+01 0.0000000000e+00 0.0000e+00 -1.0000e+00
        6  1    1    2  501    0 +3.0732842257e+01 +4.3913325555e+01 +5.4273242808e+02 5.7215415426e+02 1.7300000000e+02 0.0000e+00 -1.0000e+00
       -6  1    1    2    0  502 -3.0732842257e+01 -4.3913325555e+01 +6.7490274176e+02 6.9878150991e+02 1.7300000000e+02 0.0000e+00 -1.0000e+00
<mgrwt>
<rscale>  2 0.18111291E+03</rscale>
<asrwt>0</asrwt>
<pdfrwt beam="1">  1       21 0.19142848E+00 0.18111291E+03</pdfrwt>
<pdfrwt beam="2">  1       21 0.41000390E-02 0.18111291E+03</pdfrwt>
<totfact> 0.57795790E+04</totfact>
</mgrwt>
<rwgt>
<wgt id='1'> +6.6590149e+02 </wgt>
<wgt id='2'> +8.1648023e+02 </wgt>
<wgt id='3'> +5.0481800e+02 </wgt>
<wgt id='4'> +6.6590148e+02 </wgt>
<wgt id='5'> +5.0375669e+02 </wgt>
<wgt id='6'> +6.2123823e+02 </wgt>
<wgt id='7'> +7.6610539e+02 </wgt>
<wgt id='8'> +4.6283764e+02 </wgt>
<wgt id='9'> +6.2123822e+02 </wgt>
<wgt id='10'> +4.6184137e+02 </wgt>
<wgt id='11'> +5.6957644e+02 </wgt>
<wgt id='12'> +7.1060405e+02 </wgt>
<wgt id='13'> +4.2451124e+02 </wgt>
<wgt id='14'> +5.6957643e+02 </wgt>
<wgt id='15'> +4.2360209e+02 </wgt>
<wgt id='16'> +5.4111135e+02 </wgt>
<wgt id='17'> +6.5176604e+02 </wgt>
<wgt id='18'> +4.2423261e+02 </wgt>
<wgt id='19'> +5.4111135e+02 </wgt>
<wgt id='20'> +4.2341258e+02 </wgt>
<wgt id='21'> +6.1155366e+02 </wgt>
<wgt id='22'> +3.8895369e+02 </wgt>
<wgt id='23'> +5.0481800e+02 </wgt>
<wgt id='24'> +3.8818234e+02 </wgt>
<wgt id='25'> +4.6283764e+02 </wgt>
<wgt id='26'> +5.6724899e+02 </wgt>
<wgt id='27'> +3.5674543e+02 </wgt>
<wgt id='28'> +4.6283764e+02 </wgt>
<wgt id='29'> +3.5604184e+02 </wgt>
<wgt id='30'> +4.5473237e+02 </wgt>
<wgt id='31'> +5.3540917e+02 </wgt>
<wgt id='32'> +3.6166394e+02 </wgt>
<wgt id='33'> +4.5473237e+02 </wgt>
<wgt id='34'> +3.6100068e+02 </wgt>
<wgt id='35'> +4.2423262e+02 </wgt>
<wgt id='36'> +5.0237573e+02 </wgt>
<wgt id='37'> +3.3158819e+02 </wgt>
<wgt id='38'> +4.2423261e+02 </wgt>
<wgt id='39'> +3.3096345e+02 </wgt>
<wgt id='40'> +3.8895369e+02 </wgt>
<wgt id='41'> +4.6598057e+02 </wgt>
<wgt id='42'> +3.0413022e+02 </wgt>
<wgt id='43'> +3.8895369e+02 </wgt>
<wgt id='44'> +3.0356052e+02 </wgt>
<wgt id='45'> +5.0481800e+02 </wgt>
<wgt id='46'> +5.1866876e+02 </wgt>
<wgt id='47'> +5.1902939e+02 </wgt>
<wgt id='48'> +5.0338878e+02 </wgt>
<wgt id='49'> +4.6897291e+02 </wgt>
<wgt id='50'> +5.8243043e+02 </wgt>
<wgt id='51'> +4.7692770e+02 </wgt>
<wgt id='52'> +4.7546830e+02 </wgt>
<wgt id='53'> +5.0386756e+02 </wgt>
<wgt id='54'> +5.3474710e+02 </wgt>
<wgt id='55'> +5.6470034e+02 </wgt>
<wgt id='56'> +4.8460449e+02 </wgt>
<wgt id='57'> +5.3658817e+02 </wgt>
<wgt id='58'> +4.6232543e+02 </wgt>
<wgt id='59'> +5.4952245e+02 </wgt>
<wgt id='60'> +5.1058823e+02 </wgt>
<wgt id='61'> +4.4538947e+02 </wgt>
<wgt id='62'> +4.6815637e+02 </wgt>
<wgt id='63'> +5.3125660e+02 </wgt>
<wgt id='64'> +5.0679497e+02 </wgt>
<wgt id='65'> +4.6110893e+02 </wgt>
<wgt id='66'> +5.0983505e+02 </wgt>
<wgt id='67'> +5.0730466e+02 </wgt>
<wgt id='68'> +6.0487162e+02 </wgt>
<wgt id='69'> +5.3946811e+02 </wgt>
<wgt id='70'> +5.4027010e+02 </wgt>
<wgt id='71'> +4.7200155e+02 </wgt>
<wgt id='72'> +4.6846365e+02 </wgt>
<wgt id='73'> +4.6124093e+02 </wgt>
<wgt id='74'> +5.7436917e+02 </wgt>
<wgt id='75'> +5.4486088e+02 </wgt>
<wgt id='76'> +5.1882215e+02 </wgt>
<wgt id='77'> +4.8119294e+02 </wgt>
<wgt id='78'> +4.3875094e+02 </wgt>
<wgt id='79'> +5.3993666e+02 </wgt>
<wgt id='80'> +4.5130118e+02 </wgt>
<wgt id='81'> +5.2134852e+02 </wgt>
<wgt id='82'> +4.9319899e+02 </wgt>
<wgt id='83'> +4.9522004e+02 </wgt>
<wgt id='84'> +4.9130769e+02 </wgt>
<wgt id='85'> +4.5991362e+02 </wgt>
<wgt id='86'> +5.2728298e+02 </wgt>
<wgt id='87'> +4.9956611e+02 </wgt>
<wgt id='88'> +4.8969357e+02 </wgt>
<wgt id='89'> +4.3820587e+02 </wgt>
<wgt id='90'> +4.7572975e+02 </wgt>
<wgt id='91'> +4.4501720e+02 </wgt>
<wgt id='92'> +4.7575248e+02 </wgt>
<wgt id='93'> +5.1102290e+02 </wgt>
<wgt id='94'> +4.6605381e+02 </wgt>
<wgt id='95'> +5.3125941e+02 </wgt>
<wgt id='96'> +5.2476701e+02 </wgt>
<wgt id='97'> +4.6038115e+02 </wgt>
<wgt id='98'> +5.3929665e+02 </wgt>
<wgt id='99'> +4.3114656e+02 </wgt>
<wgt id='100'> +3.9451290e+02 </wgt>
<wgt id='101'> +5.8445239e+02 </wgt>
<wgt id='102'> +5.6448850e+02 </wgt>
<wgt id='103'> +4.8556705e+02 </wgt>
<wgt id='104'> +5.3541203e+02 </wgt>
<wgt id='105'> +5.1698091e+02 </wgt>
<wgt id='106'> +4.9229882e+02 </wgt>
<wgt id='107'> +4.8874335e+02 </wgt>
<wgt id='108'> +4.7367977e+02 </wgt>
<wgt id='109'> +5.0114651e+02 </wgt>
<wgt id='110'> +4.6911962e+02 </wgt>
<wgt id='111'> +4.9134812e+02 </wgt>
<wgt id='112'> +5.2425796e+02 </wgt>
<wgt id='113'> +5.2898326e+02 </wgt>
<wgt id='114'> +5.2289635e+02 </wgt>
<wgt id='115'> +4.6131812e+02 </wgt>
<wgt id='116'> +5.5046145e+02 </wgt>
<wgt id='117'> +4.9297903e+02 </wgt>
<wgt id='118'> +5.2043638e+02 </wgt>
<wgt id='119'> +5.5119851e+02 </wgt>
<wgt id='120'> +5.0387655e+02 </wgt>
<wgt id='121'> +5.0036613e+02 </wgt>
<wgt id='122'> +4.9524421e+02 </wgt>
<wgt id='123'> +4.8220091e+02 </wgt>
<wgt id='124'> +5.6612503e+02 </wgt>
<wgt id='125'> +6.2477921e+02 </wgt>
<wgt id='126'> +4.9523547e+02 </wgt>
<wgt id='127'> +4.8527565e+02 </wgt>
<wgt id='128'> +4.8429851e+02 </wgt>
<wgt id='129'> +5.1532113e+02 </wgt>
<wgt id='130'> +4.8691785e+02 </wgt>
<wgt id='131'> +4.6761280e+02 </wgt>
<wgt id='132'> +5.5420813e+02 </wgt>
<wgt id='133'> +5.4888841e+02 </wgt>
<wgt id='134'> +5.3059058e+02 </wgt>
<wgt id='135'> +4.8471205e+02 </wgt>
<wgt id='136'> +5.9390700e+02 </wgt>
<wgt id='137'> +5.2481976e+02 </wgt>
<wgt id='138'> +5.1272905e+02 </wgt>
<wgt id='139'> +5.2106968e+02 </wgt>
<wgt id='140'> +4.9234746e+02 </wgt>
<wgt id='141'> +5.6610712e+02 </wgt>
<wgt id='142'> +3.6604409e+02 </wgt>
<wgt id='143'> +5.1944431e+02 </wgt>
<wgt id='144'> +4.6306086e+02 </wgt>
<wgt id='145'> +4.6636760e+02 </wgt>
</rwgt>
</event>
<event>
 4      1 +5.0481800e+02 1.94372600e+02 7.54677100e-03 1.15457600e-01
       21 -1    0    0  503  502 +0.0000000000e+00 +0.0000000000e+00 +2.7541956553e+02 2.7541956553e+02 0.0000000000e+00 0.0000e+00 -1.0000e+00
       21 -1    0    0  501  503 -0.0000000000e+00 -0.0000000000e+00 -1.4039694881e+02 1.4039694881e+02 0.0000000000e+00 0.0000e+00 1.0000e+00
        6  1    1    2  501    0 -6.2540096203e+01 -6.2772910985e+01 +9.9006667995e+01 2.1813533023e+02 1.7300000000e+02 0.0000e+00 -1.0000e+00
       -6  1    1    2    0  502 +6.2540096203e+01 +6.2772910985e+01 +3.6015948723e+01 1.9768118410e+02 1.7300000000e+02 0.0000e+00 -1.0000e+00
<mgrwt>
<rscale>  2 0.19437259E+03</rscale>
<asrwt>0</asrwt>
<pdfrwt beam="1">  1       21 0.42372241E-01 0.19437259E+03</pdfrwt>
<pdfrwt beam="2">  1       21 0.21599531E-01 0.19437259E+03</pdfrwt>
<totfact> 0.10702294E+05</totfact>
</mgrwt>
<rwgt>
<wgt id='1'> +6.4316992e+02 </wgt>
<wgt id='2'> +5.3462119e+02 </wgt>
<wgt id='3'> +5.0481800e+02 </wgt>
<wgt id='4'> +6.4316993e+02 </wgt>
<wgt id='5'> +5.0283568e+02 </wgt>
<wgt id='6'> +6.1920260e+02 </wgt>
<wgt id='7'> +5.0641345e+02 </wgt>
<wgt id='8'> +4.7707719e+02 </wgt>
<wgt id='9'> +6.1920261e+02 </wgt>
<wgt id='10'> +4.7516407e+02 </wgt>
<wgt id='11'> +5.8517611e+02 </wgt>
<wgt id='12'> +4.7811972e+02 </wgt>
<wgt id='13'> +4.5033973e+02 </wgt>
<wgt id='14'> +5.8517612e+02 </wgt>
<wgt id='15'> +4.4852909e+02 </wgt>
<wgt id='16'> +5.2435787e+02 </wgt>
<wgt id='17'> +4.4774666e+02 </wgt>
<wgt id='18'> +4.2511080e+02 </wgt>
<wgt id='19'> +5.2435787e+02 </wgt>
<wgt id='20'> +4.2356957e+02 </wgt>
<wgt id='21'> +4.2412260e+02 </wgt>
<wgt id='22'> +4.0175007e+02 </wgt>
<wgt id='23'> +5.0481800e+02 </wgt>
<wgt id='24'> +4.0026006e+02 </wgt>
<wgt id='25'> +4.7707719e+02 </wgt>
<wgt id='26'> +4.0042652e+02 </wgt>
<wgt id='27'> +3.7923427e+02 </wgt>
<wgt id='28'> +4.7707719e+02 </wgt>
<wgt id='29'> +3.7782377e+02 </wgt>
<wgt id='30'> +4.4156546e+02 </wgt>
<wgt id='31'> +3.8101831e+02 </wgt>
<wgt id='32'> +3.6287828e+02 </wgt>
<wgt id='33'> +4.4156546e+02 </wgt>
<wgt id='34'> +3.6163858e+02 </wgt>
<wgt id='35'> +4.2511080e+02 </wgt>
<wgt id='36'> +3.6091499e+02 </wgt>
<wgt id='37'> +3.4293735e+02 </wgt>
<wgt id='38'> +4.2511080e+02 </wgt>
<wgt id='39'> +3.4173721e+02 </wgt>
<wgt id='40'> +4.0175007e+02 </wgt>
<wgt id='41'> +3.4075037e+02 </wgt>
<wgt id='42'> +3.2371767e+02 </wgt>
<wgt id='43'> +4.0175007e+02 </wgt>
<wgt id='44'> +3.2258137e+02 </wgt>
<wgt id='45'> +5.0481800e+02 </wgt>
<wgt id='46'> +5.0218752e+02 </wgt>
<wgt id='47'> +5.2092110e+02 </wgt>
<wgt id='48'> +5.0453159e+02 </wgt>
<wgt id='49'> +5.0400596e+02 </wgt>
<wgt id='50'> +5.8035738e+02 </wgt>
<wgt id='51'> +4.9517802e+02 </wgt>
<wgt id='52'> +5.0131571e+02 </wgt>
<wgt id='53'> +5.1286798e+02 </wgt>
<wgt id='54'> +5.0764521e+02 </wgt>
<wgt id='55'> +4.5246920e+02 </wgt>
<wgt id='56'> +4.7318908e+02 </wgt>
<wgt id='57'> +4.9157817e+02 </wgt>
<wgt id='58'> +5.1079220e+02 </wgt>
<wgt id='59'> +4.9460531e+02 </wgt>
<wgt id='60'> +4.8187282e+02 </wgt>
<wgt id='61'> +4.9749378e+02 </wgt>
<wgt id='62'> +4.9775792e+02 </wgt>
<wgt id='63'> +5.0527104e+02 </wgt>
<wgt id='64'> +5.0273498e+02 </wgt>
<wgt id='65'> +5.9449066e+02 </wgt>
<wgt id='66'> +4.9244096e+02 </wgt>
<wgt id='67'> +5.0936976e+02 </wgt>
<wgt id='68'> +5.3700038e+02 </wgt>
<wgt id='69'> +4.8911151e+02 </wgt>
<wgt id='70'> +4.9714060e+02 </wgt>
<wgt id='71'> +5.1446901e+02 </wgt>
<wgt id='72'> +4.9599443e+02 </wgt>
<wgt id='73'> +4.9964023e+02 </wgt>
<wgt id='74'> +5.1659880e+02 </wgt>
<wgt id='75'> +5.1506029e+02 </wgt>
<wgt id='76'> +4.9103161e+02 </wgt>
<wgt id='77'> +4.8484541e+02 </wgt>
<wgt id='78'> +5.0830037e+02 </wgt>
<wgt id='79'> +4.8275730e+02 </wgt>
<wgt id='80'> +5.0172811e+02 </wgt>
<wgt id='81'> +4.9679850e+02 </wgt>
<wgt id='82'> +5.1996863e+02 </wgt>
<wgt id='83'> +5.1362757e+02 </wgt>
<wgt id='84'> +5.5226995e+02 </wgt>
<wgt id='85'> +5.3087633e+02 </wgt>
<wgt id='86'> +4.9980242e+02 </wgt>
<wgt id='87'> +5.0379697e+02 </wgt>
<wgt id='88'> +5.1257417e+02 </wgt>
<wgt id='89'> +5.1526175e+02 </wgt>
<wgt id='90'> +5.0939905e+02 </wgt>
<wgt id='91'> +5.3763717e+02 </wgt>
<wgt id='92'> +4.7018682e+02 </wgt>
<wgt id='93'> +4.9466581e+02 </wgt>
<wgt id='94'> +5.0427680e+02 </wgt>
<wgt id='95'> +4.8570712e+02 </wgt>
<wgt id='96'> +5.4121866e+02 </wgt>
<wgt id='97'> +5.1427067e+02 </wgt>
<wgt id='98'> +4.8121037e+02 </wgt>
<wgt id='99'> +4.9153922e+02 </wgt>
<wgt id='100'> +5.0588701e+02 </wgt>
<wgt id='101'> +5.2412828e+02 </wgt>
<wgt id='102'> +4.8555849e+02 </wgt>
<wgt id='103'> +5.4524414e+02 </wgt>
<wgt id='104'> +5.0243420e+02 </wgt>
<wgt id='105'> +5.2654090e+02 </wgt>
<wgt id='106'> +4.6957035e+02 </wgt>
<wgt id='107'> +5.0350481e+02 </wgt>
<wgt id='108'> +4.5762515e+02 </wgt>
<wgt id='109'> +4.7746931e+02 </wgt>
<wgt id='110'> +5.0674305e+02 </wgt>
<wgt id='111'> +4.9348371e+02 </wgt>
<wgt id='112'> +4.8469283e+02 </wgt>
<wgt id='113'> +4.6623544e+02 </wgt>
<wgt id='114'> +5.0831213e+02 </wgt>
<wgt id='115'> +5.1071853e+02 </wgt>
<wgt id='116'> +5.0009342e+02 </wgt>
<wgt id='117'> +5.1321048e+02 </wgt>
<wgt id='118'> +5.1351174e+02 </wgt>
<wgt id='119'> +4.8689713e+02 </wgt>
<wgt id='120'> +5.0585141e+02 </wgt>
<wgt id='121'> +4.9225579e+02 </wgt>
<wgt id='122'> +4.9892242e+02 </wgt>
<wgt id='123'> +5.1014664e+02 </wgt>
<wgt id='124'> +5.3357770e+02 </wgt>
<wgt id='125'> +5.3527959e+02 </wgt>
<wgt id='126'> +5.2221213e+02 </wgt>
<wgt id='127'> +5.1806919e+02 </wgt>
<wgt id='128'> +4.7179908e+02 </wgt>
<wgt id='129'> +5.6922029e+02 </wgt>
<wgt id='130'> +5.0785090e+02 </wgt>
<wgt id='131'> +5.4052460e+02 </wgt>
<wgt id='132'> +4.9642077e+02 </wgt>
<wgt id='133'> +4.9825380e+02 </wgt>
<wgt id='134'> +4.7457925e+02 </wgt>
<wgt id='135'> +5.1765604e+02 </wgt>
<wgt id='136'> +4.8180781e+02 </wgt>
<wgt id='137'> +4.7451714e+02 </wgt>
<wgt id='138'> +4.5601567e+02 </wgt>
<wgt id='139'> +5.1273453e+02 </wgt>
<wgt id='140'> +5.3809166e+02 </wgt>
<wgt id='141'> +5.0304192e+02 </wgt>
<wgt id='142'> +5.1219967e+02 </wgt>
<wgt id='143'> +4.9883955e+02 </wgt>
<wgt id='144'> +5.0670318e+02 </wgt>
<wgt id='145'> +5.0589068e+02 </wgt>
</rwgt>
</event>
<event>
 4      1 +5.0481800e+02 2.60167000e+02 7.54677100e-03 1.10704300e-01
       21 -1    0    0  501  502 +0.0000000000e+00 +0.0000000000e+00 +5.4412998640e+01 5.4412998640e+01 0.0000000000e+00 0.0000e+00 1.0000e+00
       21 -1    0    0  502  503 -0.0000000000e+00 -0.0000000000e+00 -1.3977122799e+03 1.3977122799e+03 0.0000000000e+00 0.0000e+00 -1.0000e+00
        6  1    1    2  501    0 -2.4923595619e+01 +1.9270885047e+02 -4.3082865212e+02 5.0328939405e+02 1.7300000000e+02 0.0000e+00 1.0000e+00
       -6  1    1    2    0  503 +2.4923595619e+01 -1.9270885047e+02 -9.1247062916e+02 9.4883588452e+02 1.7300000000e+02 0.0000e+00 -1.0000e+00
<mgrwt>
<rscale>  2 0.26016704E+03</rscale>
<asrwt>0</asrwt>
<pdfrwt beam="1">  1       21 0.83712304E-02 0.26016704E+03</pdfrwt>
<pdfrwt beam="2">  1       21 0.21503266E+00 0.26016704E+03</pdfrwt>
<totfact> 0.11376260E+04</totfact>
</mgrwt>
<rwgt>
<wgt id='1'> +6.8124309e+02 </wgt>
<wgt id='2'> +5.6156498e+02 </wgt>
<wgt id='3'> +5.0481800e+02 </wgt>
<wgt id='4'> +6.8124309e+02 </wgt>
<wgt id='5'> +4.9269389e+02 </wgt>
<wgt id='6'> +6.0962011e+02 </wgt>
<wgt id='7'> +4.9975704e+02 </wgt>
<wgt id='8'> +4.4997201e+02 </wgt>
<wgt id='9'> +6.0962011e+02 </wgt>
<wgt id='10'> +4.3931703e+02 </wgt>
<wgt id='11'> +5.4338788e+02 </wgt>
<wgt id='12'> +4.4666499e+02 </wgt>
<wgt id='13'> +4.0281582e+02 </wgt>
<wgt id='14'> +5.4338789e+02 </wgt>
<wgt id='15'> +3.9342414e+02 </wgt>
<wgt id='16'> +5.6412800e+02 </wgt>
<wgt id='17'> +4.7335788e+02 </wgt>
<wgt id='18'> +4.2765049e+02 </wgt>
<wgt id='19'> +5.6412800e+02 </wgt>
<wgt id='20'> +4.1786027e+02 </wgt>
<wgt id='21'> +4.2125834e+02 </wgt>
<wgt id='22'> +3.8118837e+02 </wgt>
<wgt id='23'> +5.0481800e+02 </wgt>
<wgt id='24'> +3.7259064e+02 </wgt>
<wgt id='25'> +4.4997201e+02 </wgt>
<wgt id='26'> +3.7650565e+02 </wgt>
<wgt id='27'> +3.4124057e+02 </wgt>
<wgt id='28'> +4.4997201e+02 </wgt>
<wgt id='29'> +3.3366828e+02 </wgt>
<wgt id='30'> +4.7789424e+02 </wgt>
<wgt id='31'> +4.0435333e+02 </wgt>
<wgt id='32'> +3.6691511e+02 </wgt>
<wgt id='33'> +4.7789425e+02 </wgt>
<wgt id='34'> +3.5886540e+02 </wgt>
<wgt id='35'> +4.2765049e+02 </wgt>
<wgt id='36'> +3.5984869e+02 </wgt>
<wgt id='37'> +3.2705159e+02 </wgt>
<wgt id='38'> +4.2765049e+02 </wgt>
<wgt id='39'> +3.1998708e+02 </wgt>
<wgt id='40'> +3.8118837e+02 </wgt>
<wgt id='41'> +3.2161990e+02 </wgt>
<wgt id='42'> +2.9277722e+02 </wgt>
<wgt id='43'> +3.8118837e+02 </wgt>
<wgt id='44'> +2.8655990e+02 </wgt>
<wgt id='45'> +5.0481800e+02 </wgt>
<wgt id='46'> +5.1709310e+02 </wgt>
<wgt id='47'> +5.3351966e+02 </wgt>
<wgt id='48'> +5.0383061e+02 </wgt>
<wgt id='49'> +4.6004012e+02 </wgt>
<wgt id='50'> +5.9438448e+02 </wgt>
<wgt id='51'> +4.7344243e+02 </wgt>
<wgt id='52'> +4.6012075e+02 </wgt>
<wgt id='53'> +5.1567594e+02 </wgt>
<wgt id='54'> +5.3783174e+02 </wgt>
<wgt id='55'> +5.7687963e+02 </wgt>
<wgt id='56'> +4.8610318e+02 </wgt>
<wgt id='57'> +5.3809285e+02 </wgt>
<wgt id='58'> +4.5048431e+02 </wgt>
<wgt id='59'> +5.4681231e+02 </wgt>
<wgt id='60'> +4.9763745e+02 </wgt>
<wgt id='61'> +4.2975463e+02 </wgt>
<wgt id='62'> +4.5812934e+02 </wgt>
<wgt id='63'> +5.3520628e+02 </wgt>
<wgt id='64'> +5.0574998e+02 </wgt>
<wgt id='65'> +4.5093418e+02 </wgt>
<wgt id='66'> +5.1491395e+02 </wgt>
<wgt id='67'> +5.0860961e+02 </wgt>
<wgt id='68'> +6.3253130e+02 </wgt>
<wgt id='69'> +5.5887168e+02 </wgt>
<wgt id='70'> +5.6194986e+02 </wgt>
<wgt id='71'> +4.6227553e+02 </wgt>
<wgt id='72'> +4.5237324e+02 </wgt>
<wgt id='73'> +4.5234080e+02 </wgt>
<wgt id='74'> +5.9339105e+02 </wgt>
<wgt id='75'> +5.6429969e+02 </wgt>
<wgt id='76'> +5.1952787e+02 </wgt>
<wgt id='77'> +4.6854774e+02 </wgt>
<wgt id='78'> +4.2937688e+02 </wgt>
<wgt id='79'> +5.4798689e+02 </wgt>
<wgt id='80'> +4.3804645e+02 </wgt>
<wgt id='81'> +5.3084826e+02 </wgt>
<wgt id='82'> +5.0039981e+02 </wgt>
<wgt id='83'> +5.0004034e+02 </wgt>
<wgt id='84'> +4.8732736e+02 </wgt>
<wgt id='85'> +4.4849357e+02 </wgt>
<wgt id='86'> +5.3725478e+02 </wgt>
<wgt id='87'> +4.9334896e+02 </wgt>
<wgt id='88'> +4.9826337e+02 </wgt>
<wgt id='89'> +4.0939082e+02 </wgt>
<wgt id='90'> +4.5792949e+02 </wgt>
<wgt id='91'> +4.2872914e+02 </wgt>
<wgt id='92'> +4.7396514e+02 </wgt>
<wgt id='93'> +5.1254111e+02 </wgt>
<wgt id='94'> +4.5968902e+02 </wgt>
<wgt id='95'> +5.2930221e+02 </wgt>
<wgt id='96'> +5.2988485e+02 </wgt>
<wgt id='97'> +4.5108777e+02 </wgt>
<wgt id='98'> +5.5631611e+02 </wgt>
<wgt id='99'> +4.1396206e+02 </wgt>
<wgt id='100'> +3.7327366e+02 </wgt>
<wgt id='101'> +5.9168977e+02 </wgt>
<wgt id='102'> +5.7250386e+02 </wgt>
<wgt id='103'> +4.7090611e+02 </wgt>
<wgt id='104'> +5.4846080e+02 </wgt>
<wgt id='105'> +5.1608549e+02 </wgt>
<wgt id='106'> +4.9569537e+02 </wgt>
<wgt id='107'> +4.9515876e+02 </wgt>
<wgt id='108'> +4.7415505e+02 </wgt>
<wgt id='109'> +5.0010670e+02 </wgt>
<wgt id='110'> +4.5344833e+02 </wgt>
<wgt id='111'> +4.8753581e+02 </wgt>
<wgt id='112'> +5.2914644e+02 </wgt>
<wgt id='113'> +5.4563529e+02 </wgt>
<wgt id='114'> +5.2377238e+02 </wgt>
<wgt id='115'> +4.6728067e+02 </wgt>
<wgt id='116'> +5.5951836e+02 </wgt>
<wgt id='117'> +4.9828650e+02 </wgt>
<wgt id='118'> +5.1543130e+02 </wgt>
<wgt id='119'> +5.5950641e+02 </wgt>
<wgt id='120'> +5.0495196e+02 </wgt>
<wgt id='121'> +4.8911507e+02 </wgt>
<wgt id='122'> +4.9032845e+02 </wgt>
<wgt id='123'> +4.7541943e+02 </wgt>
<wgt id='124'> +5.6860472e+02 </wgt>
<wgt id='125'> +6.5050559e+02 </wgt>
<wgt id='126'> +4.9067063e+02 </wgt>
<wgt id='127'> +4.7607396e+02 </wgt>
<wgt id='128'> +4.9378696e+02 </wgt>
<wgt id='129'> +5.0719218e+02 </wgt>
<wgt id='130'> +5.0732557e+02 </wgt>
<wgt id='131'> +4.5600527e+02 </wgt>
<wgt id='132'> +5.4798251e+02 </wgt>
<wgt id='133'> +5.5369817e+02 </wgt>
<wgt id='134'> +5.3638629e+02 </wgt>
<wgt id='135'> +4.7895517e+02 </wgt>
<wgt id='136'> +5.9974831e+02 </wgt>
<wgt id='137'> +5.4369356e+02 </wgt>
<wgt id='138'> +5.2499217e+02 </wgt>
<wgt id='139'> +5.2037641e+02 </wgt>
<wgt id='140'> +4.9122906e+02 </wgt>
<wgt id='141'> +5.9056946e+02 </wgt>
<wgt id='142'> +3.3237560e+02 </wgt>
<wgt id='143'> +5.1452269e+02 </wgt>
<wgt id='144'> +4.5242843e+02 </wgt>
<wgt id='145'> +4.6117959e+02 </wgt>
</rwgt>
</event>
<event>
 4      1 +5.0481800e+02 1.76094200e+02 7.54677100e-03 1.17163800e-01
       21 -1    0    0  501  502 +0.0000000000e+00 +0.0000000000e+00 +8.2327635282e+02 8.2327635282e+02 0.0000000000e+00 0.0000e+00 1.0000e+00
       21 -1    0    0  502  503 -0.0000000000e+00 -0.0000000000e+00 -4.1547446709e+01 4.1547446709e+01 0.0000000000e+00 0.0000e+00 1.0000e+00
        6  1    1    2  501    0 +2.3006914124e+01 -2.3469849117e+01 +5.2303898324e+02 5.5188670024e+02 1.7300000000e+02 0.0000e+00 1.0000e+00
       -6  1    1    2    0  503 -2.3006914124e+01 +2.3469849117e+01 +2.5868992287e+02 3.1293709929e+02 1.7300000000e+02 0.0000e+00 1.0000e+00
<mgrwt>
<rscale>  2 0.17609416E+03</rscale>
<asrwt>0</asrwt>
<pdfrwt beam="1">  1       21 0.12665789E+00 0.17609416E+03</pdfrwt>
<pdfrwt beam="2">  1       21 0.63919155E-02 0.17609416E+03</pdfrwt>
<totfact> 0.82282321E+04</totfact>
</mgrwt>
<rwgt>
<wgt id='1'> +6.5267229e+02 </wgt>
<wgt id='2'> +9.1908687e+02 </wgt>
<wgt id='3'> +5.0481800e+02 </wgt>
<wgt id='4'> +6.5267230e+02 </wgt>
<wgt id='5'> +4.9601430e+02 </wgt>
<wgt id='6'> +6.2209129e+02 </wgt>
<wgt id='7'> +8.8793511e+02 </wgt>
<wgt id='8'> +4.7186993e+02 </wgt>
<wgt id='9'> +6.2209129e+02 </wgt>
<wgt id='10'> +4.6336557e+02 </wgt>
<wgt id='11'> +5.8148911e+02 </wgt>
<wgt id='12'> +8.4884765e+02 </wgt>
<wgt id='13'> +4.4037152e+02 </wgt>
<wgt id='14'> +5.8148911e+02 </wgt>
<wgt id='15'> +4.3243045e+02 </wgt>
<wgt id='16'> +5.2963404e+02 </wgt>
<wgt id='17'> +7.2196578e+02 </wgt>
<wgt id='18'> +4.2384708e+02 </wgt>
<wgt id='19'> +5.2963404e+02 </wgt>
<wgt id='20'> +4.1710259e+02 </wgt>
<wgt id='21'> +6.9749529e+02 </wgt>
<wgt id='22'> +3.9618375e+02 </wgt>
<wgt id='23'> +5.0481800e+02 </wgt>
<wgt id='24'> +3.8964800e+02 </wgt>
<wgt id='25'> +4.7186992e+02 </wgt>
<wgt id='26'> +6.6679111e+02 </wgt>
<wgt id='27'> +3.6973757e+02 </wgt>
<wgt id='28'> +4.7186993e+02 </wgt>
<wgt id='29'> +3.6363440e+02 </wgt>
<wgt id='30'> +4.4468272e+02 </wgt>
<wgt id='31'> +5.8197054e+02 </wgt>
<wgt id='32'> +3.6114900e+02 </wgt>
<wgt id='33'> +4.4468272e+02 </wgt>
<wgt id='34'> +3.5572131e+02 </wgt>
<wgt id='35'> +4.2384708e+02 </wgt>
<wgt id='36'> +5.6224508e+02 </wgt>
<wgt id='37'> +3.3757780e+02 </wgt>
<wgt id='38'> +4.2384708e+02 </wgt>
<wgt id='39'> +3.3230697e+02 </wgt>
<wgt id='40'> +3.9618375e+02 </wgt>
<wgt id='41'> +5.3749470e+02 </wgt>
<wgt id='42'> +3.1504370e+02 </wgt>
<wgt id='43'> +3.9618375e+02 </wgt>
<wgt id='44'> +3.1012156e+02 </wgt>
<wgt id='45'> +5.0481800e+02 </wgt>
<wgt id='46'> +5.1700490e+02 </wgt>
<wgt id='47'> +5.1493010e+02 </wgt>
<wgt id='48'> +5.0586857e+02 </wgt>
<wgt id='49'> +4.8980943e+02 </wgt>
<wgt id='50'> +5.8804902e+02 </wgt>
<wgt id='51'> +4.8853992e+02 </wgt>
<wgt id='52'> +4.9972896e+02 </wgt>
<wgt id='53'> +4.9635716e+02 </wgt>
<wgt id='54'> +5.1939300e+02 </wgt>
<wgt id='55'> +5.0565070e+02 </wgt>
<wgt id='56'> +4.6810010e+02 </wgt>
<wgt id='57'> +5.1833374e+02 </wgt>
<wgt id='58'> +4.8732857e+02 </wgt>
<wgt id='59'> +5.3483204e+02 </wgt>
<wgt id='60'> +5.1151308e+02 </wgt>
<wgt id='61'> +4.3965559e+02 </wgt>
<wgt id='62'> +4.8898561e+02 </wgt>
<wgt id='63'> +5.1299148e+02 </wgt>
<wgt id='64'> +5.0000484e+02 </wgt>
<wgt id='65'> +5.2526417e+02 </wgt>
<wgt id='66'> +4.9915171e+02 </wgt>
<wgt id='67'> +5.0666994e+02 </wgt>
<wgt id='68'> +5.6437002e+02 </wgt>
<wgt id='69'> +5.0920549e+02 </wgt>
<wgt id='70'> +5.0671257e+02 </wgt>
<wgt id='71'> +5.0037699e+02 </wgt>
<wgt id='72'> +4.8772746e+02 </wgt>
<wgt id='73'> +4.8244338e+02 </wgt>
<wgt id='74'> +5.4130093e+02 </wgt>
<wgt id='75'> +5.1910185e+02 </wgt>
<wgt id='76'> +5.0643432e+02 </wgt>
<wgt id='77'> +4.9492052e+02 </wgt>
<wgt id='78'> +4.7033189e+02 </wgt>
<wgt id='79'> +5.1054376e+02 </wgt>
<wgt id='80'> +4.8174088e+02 </wgt>
<wgt id='81'> +5.0146138e+02 </wgt>
<wgt id='82'> +4.8943938e+02 </wgt>
<wgt id='83'> +5.0288937e+02 </wgt>
<wgt id='84'> +5.2320285e+02 </wgt>
<wgt id='85'> +4.9736289e+02 </wgt>
<wgt id='86'> +5.1045905e+02 </wgt>
<wgt id='87'> +5.0712579e+02 </wgt>
<wgt id='88'> +4.9839547e+02 </wgt>
<wgt id='89'> +4.9476932e+02 </wgt>
<wgt id='90'> +5.0768979e+02 </wgt>
<wgt id='91'> +4.9604009e+02 </wgt>
<wgt id='92'> +4.6991133e+02 </wgt>
<wgt id='93'> +5.0482861e+02 </wgt>
<wgt id='94'> +4.8434177e+02 </wgt>
<wgt id='95'> +5.1257274e+02 </wgt>
<wgt id='96'> +5.2940426e+02 </wgt>
<wgt id='97'> +4.8855389e+02 </wgt>
<wgt id='98'> +5.0521327e+02 </wgt>
<wgt id='99'> +4.6813272e+02 </wgt>
<wgt id='100'> +4.5173392e+02 </wgt>
<wgt id='101'> +5.6398179e+02 </wgt>
<wgt id='102'> +5.3256644e+02 </wgt>
<wgt id='103'> +5.2644225e+02 </wgt>
<wgt id='104'> +5.1362367e+02 </wgt>
<wgt id='105'> +5.2072974e+02 </wgt>
<wgt id='106'> +4.7251651e+02 </wgt>
<wgt id='107'> +4.8225298e+02 </wgt>
<wgt id='108'> +4.5655759e+02 </wgt>
<wgt id='109'> +4.8651049e+02 </wgt>
<wgt id='110'> +4.9457689e+02 </wgt>
<wgt id='111'> +4.9345469e+02 </wgt>
<wgt id='112'> +4.9186630e+02 </wgt>
<wgt id='113'> +4.8512216e+02 </wgt>
<wgt id='114'> +5.0329170e+02 </wgt>
<wgt id='115'> +4.7060915e+02 </wgt>
<wgt id='116'> +5.2842884e+02 </wgt>
<wgt id='117'> +4.9476923e+02 </wgt>
<wgt id='118'> +5.2708665e+02 </wgt>
<wgt id='119'> +5.0995691e+02 </wgt>
<wgt id='120'> +4.9642752e+02 </wgt>
<wgt id='121'> +5.0253968e+02 </wgt>
<wgt id='122'> +4.9991214e+02 </wgt>
<wgt id='123'> +5.0038618e+02 </wgt>
<wgt id='124'> +5.5936867e+02 </wgt>
<wgt id='125'> +5.7567135e+02 </wgt>
<wgt id='126'> +5.1153432e+02 </wgt>
<wgt id='127'> +5.0880135e+02 </wgt>
<wgt id='128'> +4.6402681e+02 </wgt>
<wgt id='129'> +5.4907913e+02 </wgt>
<wgt id='130'> +4.8977165e+02 </wgt>
<wgt id='131'> +5.0833522e+02 </wgt>
<wgt id='132'> +5.4227253e+02 </wgt>
<wgt id='133'> +5.2726979e+02 </wgt>
<wgt id='134'> +5.0455492e+02 </wgt>
<wgt id='135'> +5.0386812e+02 </wgt>
<wgt id='136'> +5.4659607e+02 </wgt>
<wgt id='137'> +4.9233962e+02 </wgt>
<wgt id='138'> +4.8336837e+02 </wgt>
<wgt id='139'> +5.2042147e+02 </wgt>
<wgt id='140'> +5.0922207e+02 </wgt>
<wgt id='141'> +5.2391073e+02 </wgt>
<wgt id='142'> +4.4933661e+02 </wgt>
<wgt id='143'> +5.1948424e+02 </wgt>
<wgt id='144'> +4.8788703e+02 </wgt>
<wgt id='145'> +4.9102654e+02 </wgt>
</rwgt>
</event>
<event>
 4      1 +5.0481800e+02 2.17281000e+02 7.54677100e-03 1.13592700e-01
       21 -1    0    0  503  502 +0.0000000000e+00 +0.0000000000e+00 +7.3026044367e+02 7.3026044367e+02 0.0000000000e+00 0.0000e+00 -1.0000e+00
       21 -1    0    0  501  503 -0.0000000000e+00 -0.0000000000e+00 -1.0903276602e+02 1.0903276602e+02 0.0000000000e+00 0.0000e+00 -1.0000e+00
        6  1    1    2  501    0 +4.5658808208e+01 +1.2327737574e+02 +4.2873142689e+01 2.2147041451e+02 1.7300000000e+02 0.0000e+00 -1.0000e+00
       -6  1    1    2    0  502 -4.5658808208e+01 -1.2327737574e+02 +5.7835453496e+02 6.1782279519e+02 1.7300000000e+02 0.0000e+00 -1.0000e+00
<mgrwt>
<rscale>  2 0.21728101E+03</rscale>
<asrwt>0</asrwt>
<pdfrwt beam="1">  1       21 0.11234776E+00 0.21728101E+03</pdfrwt>
<pdfrwt beam="2">  1       21 0.16774272E-01 0.21728101E+03</pdfrwt>
<totfact> 0.19539967E+04</totfact>
</mgrwt>
<rwgt>
<wgt id='1'> +6.6400747e+02 </wgt>
<wgt id='2'> +5.5039995e+02 </wgt>
<wgt id='3'> +5.0481800e+02 </wgt>
<wgt id='4'> +6.6400747e+02 </wgt>
<wgt id='5'> +4.5729572e+02 </wgt>
<wgt id='6'> +6.1543090e+02 </wgt>
<wgt id='7'> +5.0444394e+02 </wgt>
<wgt id='8'> +4.6235490e+02 </wgt>
<wgt id='9'> +6.1543090e+02 </wgt>
<wgt id='10'> +4.1911157e+02 </wgt>
<wgt id='11'> +5.6366352e+02 </wgt>
<wgt id='12'> +4.6256847e+02 </wgt>
<wgt id='13'> +4.2424077e+02 </wgt>
<wgt id='14'> +5.6366352e+02 </wgt>
<wgt id='15'> +3.8487057e+02 </wgt>
<wgt id='16'> +5.4466379e+02 </wgt>
<wgt id='17'> +4.6190807e+02 </wgt>
<wgt id='18'> +4.2613293e+02 </wgt>
<wgt id='19'> +5.4466379e+02 </wgt>
<wgt id='20'> +3.8801355e+02 </wgt>
<wgt id='21'> +4.2334075e+02 </wgt>
<wgt id='22'> +3.9028847e+02 </wgt>
<wgt id='23'> +5.0481800e+02 </wgt>
<wgt id='24'> +3.5561445e+02 </wgt>
<wgt id='25'> +4.6235490e+02 </wgt>
<wgt id='26'> +3.8819791e+02 </wgt>
<wgt id='27'> +3.5811513e+02 </wgt>
<wgt id='28'> +4.6235490e+02 </wgt>
<wgt id='29'> +3.2656110e+02 </wgt>
<wgt id='30'> +4.5976802e+02 </wgt>
<wgt id='31'> +3.9348194e+02 </wgt>
<wgt id='32'> +3.6447675e+02 </wgt>
<wgt id='33'> +4.5976802e+02 </wgt>
<wgt id='34'> +3.3335986e+02 </wgt>
<wgt id='35'> +4.2613293e+02 </wgt>
<wgt id='36'> +3.6062791e+02 </wgt>
<wgt id='37'> +3.3381854e+02 </wgt>
<wgt id='38'> +4.2613293e+02 </wgt>
<wgt id='39'> +3.0552435e+02 </wgt>
<wgt id='40'> +3.9028847e+02 </wgt>
<wgt id='41'> +3.3069105e+02 </wgt>
<wgt id='42'> +3.0630028e+02 </wgt>
<wgt id='43'> +3.9028847e+02 </wgt>
<wgt id='44'> +2.8056331e+02 </wgt>
<wgt id='45'> +5.0481800e+02 </wgt>
<wgt id='46'> +5.1761028e+02 </wgt>
<wgt id='47'> +5.2170128e+02 </wgt>
<wgt id='48'> +5.0858957e+02 </wgt>
<wgt id='49'> +4.9236737e+02 </wgt>
<wgt id='50'> +6.0765062e+02 </wgt>
<wgt id='51'> +4.8969003e+02 </wgt>
<wgt id='52'> +5.0067968e+02 </wgt>
<wgt id='53'> +4.9868003e+02 </wgt>
<wgt id='54'> +5.1659811e+02 </wgt>
<wgt id='55'> +4.8593882e+02 </wgt>
<wgt id='56'> +4.6095165e+02 </wgt>
<wgt id='57'> +5.1040971e+02 </wgt>
<wgt id='58'> +4.8763982e+02 </wgt>
<wgt id='59'> +5.2768232e+02 </wgt>
<wgt id='60'> +5.0338507e+02 </wgt>
<wgt id='61'> +4.4023903e+02 </wgt>
<wgt id='62'> +4.9172557e+02 </wgt>
<wgt id='63'> +5.0996160e+02 </wgt>
<wgt id='64'> +4.9573381e+02 </wgt>
<wgt id='65'> +5.5328456e+02 </wgt>
<wgt id='66'> +4.9782926e+02 </wgt>
<wgt id='67'> +5.0754717e+02 </wgt>
<wgt id='68'> +5.6397176e+02 </wgt>
<wgt id='69'> +5.1088892e+02 </wgt>
<wgt id='70'> +5.0193183e+02 </wgt>
<wgt id='71'> +5.0520936e+02 </wgt>
<wgt id='72'> +4.8003042e+02 </wgt>
<wgt id='73'> +4.8302766e+02 </wgt>
<wgt id='74'> +5.4029858e+02 </wgt>
<wgt id='75'> +5.2006063e+02 </wgt>
<wgt id='76'> +5.0057787e+02 </wgt>
<wgt id='77'> +4.9332662e+02 </wgt>
<wgt id='78'> +4.7554680e+02 </wgt>
<wgt id='79'> +5.0339871e+02 </wgt>
<wgt id='80'> +4.8525882e+02 </wgt>
<wgt id='81'> +4.9718467e+02 </wgt>
<wgt id='82'> +4.9442870e+02 </wgt>
<wgt id='83'> +5.1053371e+02 </wgt>
<wgt id='84'> +5.3872297e+02 </wgt>
<wgt id='85'> +5.0753564e+02 </wgt>
<wgt id='86'> +5.1077295e+02 </wgt>
<wgt id='87'> +5.0762888e+02 </wgt>
<wgt id='88'> +5.0633424e+02 </wgt>
<wgt id='89'> +5.0232134e+02 </wgt>
<wgt id='90'> +5.0991659e+02 </wgt>
<wgt id='91'> +5.0783833e+02 </wgt>
<wgt id='92'> +4.5871305e+02 </wgt>
<wgt id='93'> +5.0362755e+02 </wgt>
<wgt id='94'> +4.8571175e+02 </wgt>
<wgt id='95'> +5.0236426e+02 </wgt>
<wgt id='96'> +5.4139201e+02 </wgt>
<wgt id='97'> +4.9352179e+02 </wgt>
<wgt id='98'> +4.9948842e+02 </wgt>
<wgt id='99'> +4.7041532e+02 </wgt>
<wgt id='100'> +4.5693195e+02 </wgt>
<wgt id='101'> +5.6437344e+02 </wgt>
<wgt id='102'> +5.2750515e+02 </wgt>
<wgt id='103'> +5.3765058e+02 </wgt>
<wgt id='104'> +5.1456979e+02 </wgt>
<wgt id='105'> +5.1998459e+02 </wgt>
<wgt id='106'> +4.6106478e+02 </wgt>
<wgt id='107'> +4.7886935e+02 </wgt>
<wgt id='108'> +4.4636930e+02 </wgt>
<wgt id='109'> +4.7718379e+02 </wgt>
<wgt id='110'> +4.9508867e+02 </wgt>
<wgt id='111'> +4.9081926e+02 </wgt>
<wgt id='112'> +4.8343755e+02 </wgt>
<wgt id='113'> +4.7308999e+02 </wgt>
<wgt id='114'> +4.9730117e+02 </wgt>
<wgt id='115'> +4.7641491e+02 </wgt>
<wgt id='116'> +5.2846566e+02 </wgt>
<wgt id='117'> +4.9818924e+02 </wgt>
<wgt id='118'> +5.3062380e+02 </wgt>
<wgt id='119'> +4.9920975e+02 </wgt>
<wgt id='120'> +4.9600200e+02 </wgt>
<wgt id='121'> +4.9569243e+02 </wgt>
<wgt id='122'> +4.9844462e+02 </wgt>
<wgt id='123'> +5.0642650e+02 </wgt>
<wgt id='124'> +5.6319753e+02 </wgt>
<wgt id='125'> +5.7413427e+02 </wgt>
<wgt id='126'> +5.1817277e+02 </wgt>
<wgt id='127'> +5.1444169e+02 </wgt>
<wgt id='128'> +4.6104091e+02 </wgt>
<wgt id='129'> +5.6098833e+02 </wgt>
<wgt id='130'> +4.9927692e+02 </wgt>
<wgt id='131'> +5.1862655e+02 </wgt>
<wgt id='132'> +5.3361980e+02 </wgt>
<wgt id='133'> +5.2418967e+02 </wgt>
<wgt id='134'> +4.9511750e+02 </wgt>
<wgt id='135'> +5.0797749e+02 </wgt>
<wgt id='136'> +5.3108737e+02 </wgt>
<wgt id='137'> +4.8900241e+02 </wgt>
<wgt id='138'> +4.8138808e+02 </wgt>
<wgt id='139'> +5.2061389e+02 </wgt>
<wgt id='140'> +5.1560720e+02 </wgt>
<wgt id='141'> +5.2077968e+02 </wgt>
<wgt id='142'> +4.6078062e+02 </wgt>
<wgt id='143'> +5.1537481e+02 </wgt>
<wgt id='144'> +4.8825030e+02 </wgt>
<wgt id='145'> +4.9614962e+02 </wgt>
</rwgt>
</event>
<event>
 4      1 +5.0481800e+02 2.28578000e+02 7.54677100e-03 1.12764500e-01
       21 -1    0    0  501  502 +0.0000000000e+00 +0.0000000000e+00 +1.5176318474e+02 1.5176318474e+02 0.0000000000e+00 0.0000e+00 -1.0000e+00
       21 -1    0    0  502  503 -0.0000000000e+00 -0.0000000000e+00 -3.6395804595e+02 3.6395804595e+02 0.0000000000e+00 0.0000e+00 1.0000e+00
        6  1    1    2  501    0 +4.8010074189e+01 -1.4147067952e+02 -1.6606700262e+02 2.8253525399e+02 1.7300000000e+02 0.0000e+00 1.0000e+00
       -6  1    1    2    0  503 -4.8010074189e+01 +1.4147067952e+02 -4.6127858590e+01 2.3318597669e+02 1.7300000000e+02 0.0000e+00 1.0000e+00
<mgrwt>
<rscale>  2 0.22857804E+03</rscale>
<asrwt>0</asrwt>
<pdfrwt beam="1">  1       21 0.23348182E-01 0.22857804E+03</pdfrwt>
<pdfrwt beam="2">  1       21 0.55993545E-01 0.22857804E+03</pdfrwt>
<totfact> 0.50945638E+04</totfact>
</mgrwt>
<rwgt>
<wgt id='1'> +6.4930572e+02 </wgt>
<wgt id='2'> +5.2383060e+02 </wgt>
<wgt id='3'> +5.0481800e+02 </wgt>
<wgt id='4'> +6.4930572e+02 </wgt>
<wgt id='5'> +4.9990601e+02 </wgt>
<wgt id='6'> +6.1371695e+02 </wgt>
<wgt id='7'> +4.8912872e+02 </wgt>
<wgt id='8'> +4.7142729e+02 </wgt>
<wgt id='9'> +6.1371695e+02 </wgt>
<wgt id='10'> +4.6684077e+02 </wgt>
<wgt id='11'> +5.7312322e+02 </wgt>
<wgt id='12'> +4.5684331e+02 </wgt>
<wgt id='13'> +4.4034800e+02 </wgt>
<wgt id='14'> +5.7312322e+02 </wgt>
<wgt id='15'> +4.3607492e+02 </wgt>
<wgt id='16'> +5.3409184e+02 </wgt>
<wgt id='17'> +4.4171839e+02 </wgt>
<wgt id='18'> +4.2654041e+02 </wgt>
<wgt id='19'> +5.3409184e+02 </wgt>
<wgt id='20'> +4.2262707e+02 </wgt>
<wgt id='21'> +4.1245615e+02 </wgt>
<wgt id='22'> +3.9832729e+02 </wgt>
<wgt id='23'> +5.0481800e+02 </wgt>
<wgt id='24'> +3.9467328e+02 </wgt>
<wgt id='25'> +4.7142729e+02 </wgt>
<wgt id='26'> +3.8523158e+02 </wgt>
<wgt id='27'> +3.7206719e+02 </wgt>
<wgt id='28'> +4.7142729e+02 </wgt>
<wgt id='29'> +3.6866343e+02 </wgt>
<wgt id='30'> +4.5127502e+02 </wgt>
<wgt id='31'> +3.7744636e+02 </wgt>
<wgt id='32'> +3.6514803e+02 </wgt>
<wgt id='33'> +4.5127502e+02 </wgt>
<wgt id='34'> +3.6197262e+02 </wgt>
<wgt id='35'> +4.2654041e+02 </wgt>
<wgt id='36'> +3.5244191e+02 </wgt>
<wgt id='37'> +3.4099566e+02 </wgt>
<wgt id='38'> +4.2654041e+02 </wgt>
<wgt id='39'> +3.3803070e+02 </wgt>
<wgt id='40'> +3.9832729e+02 </wgt>
<wgt id='41'> +3.2917864e+02 </wgt>
<wgt id='42'> +3.1851520e+02 </wgt>
<wgt id='43'> +3.9832729e+02 </wgt>
<wgt id='44'> +3.1575373e+02 </wgt>
<wgt id='45'> +5.0481800e+02 </wgt>
<wgt id='46'> +5.0765072e+02 </wgt>
<wgt id='47'> +5.2342477e+02 </wgt>
<wgt id='48'> +5.0766408e+02 </wgt>
<wgt id='49'> +5.0292086e+02 </wgt>
<wgt id='50'> +5.9403598e+02 </wgt>
<wgt id='51'> +4.9497268e+02 </wgt>
<wgt id='52'> +5.0256026e+02 </wgt>
<wgt id='53'> +5.0813624e+02 </wgt>
<wgt id='54'> +5.0809401e+02 </wgt>
<wgt id='55'> +4.5412336e+02 </wgt>
<wgt id='56'> +4.6730718e+02 </wgt>
<wgt id='57'> +4.9295245e+02 </wgt>
<wgt id='58'> +5.0515329e+02 </wgt>
<wgt id='59'> +5.0185513e+02 </wgt>
<wgt id='60'> +4.8801989e+02 </wgt>
<wgt id='61'> +4.8375109e+02 </wgt>
<wgt id='62'> +4.9834884e+02 </wgt>
<wgt id='63'> +5.0536657e+02 </wgt>
<wgt id='64'> +4.9786512e+02 </wgt>
<wgt id='65'> +5.9081957e+02 </wgt>
<wgt id='66'> +4.9376211e+02 </wgt>
<wgt id='67'> +5.0920033e+02 </wgt>
<wgt id='68'> +5.4401334e+02 </wgt>
<wgt id='69'> +4.9591878e+02 </wgt>
<wgt id='70'> +4.9641145e+02 </wgt>
<wgt id='71'> +5.1384469e+02 </wgt>
<wgt id='72'> +4.8722980e+02 </wgt>
<wgt id='73'> +4.9646788e+02 </wgt>
<wgt id='74'> +5.2287395e+02 </wgt>
<wgt id='75'> +5.1643281e+02 </wgt>
<wgt id='76'> +4.9068967e+02 </wgt>
<wgt id='77'> +4.8845770e+02 </wgt>
<wgt id='78'> +5.0094636e+02 </wgt>
<wgt id='79'> +4.8700315e+02 </wgt>
<wgt id='80'> +4.9897286e+02 </wgt>
<wgt id='81'> +4.9495920e+02 </wgt>
<wgt id='82'> +5.1520570e+02 </wgt>
<wgt id='83'> +5.1565551e+02 </wgt>
<wgt id='84'> +5.5370860e+02 </wgt>
<wgt id='85'> +5.2911835e+02 </wgt>
<wgt id='86'> +5.0323718e+02 </wgt>
<wgt id='87'> +5.0575986e+02 </wgt>
<wgt id='88'> +5.1341963e+02 </wgt>
<wgt id='89'> +5.1677917e+02 </wgt>
<wgt id='90'> +5.1150070e+02 </wgt>
<wgt id='91'> +5.3433083e+02 </wgt>
<wgt id='92'> +4.6163022e+02 </wgt>
<wgt id='93'> +4.9781249e+02 </wgt>
<wgt id='94'> +4.9986599e+02 </wgt>
<wgt id='95'> +4.8505319e+02 </wgt>
<wgt id='96'> +5.4679996e+02 </wgt>
<wgt id='97'> +5.1021638e+02 </wgt>
<wgt id='98'> +4.8354441e+02 </wgt>
<wgt id='99'> +4.8839098e+02 </wgt>
<wgt id='100'> +4.9503930e+02 </wgt>
<wgt id='101'> +5.3596048e+02 </wgt>
<wgt id='102'> +4.9618178e+02 </wgt>
<wgt id='103'> +5.4853583e+02 </wgt>
<wgt id='104'> +5.0547765e+02 </wgt>
<wgt id='105'> +5.2292458e+02 </wgt>
<wgt id='106'> +4.6173514e+02 </wgt>
<wgt id='107'> +4.9404138e+02 </wgt>
<wgt id='108'> +4.4965473e+02 </wgt>
<wgt id='109'> +4.7292120e+02 </wgt>
<wgt id='110'> +5.0452953e+02 </wgt>
<wgt id='111'> +4.9073451e+02 </wgt>
<wgt id='112'> +4.7990547e+02 </wgt>
<wgt id='113'> +4.6309341e+02 </wgt>
<wgt id='114'> +4.9963716e+02 </wgt>
<wgt id='115'> +4.9997118e+02 </wgt>
<wgt id='116'> +5.0861727e+02 </wgt>
<wgt id='117'> +5.0913783e+02 </wgt>
<wgt id='118'> +5.2074175e+02 </wgt>
<wgt id='119'> +4.8531414e+02 </wgt>
<wgt id='120'> +4.9952227e+02 </wgt>
<wgt id='121'> +4.9019349e+02 </wgt>
<wgt id='122'> +4.9814004e+02 </wgt>
<wgt id='123'> +5.1155139e+02 </wgt>
<wgt id='124'> +5.4329255e+02 </wgt>
<wgt id='125'> +5.4460629e+02 </wgt>
<wgt id='126'> +5.2464510e+02 </wgt>
<wgt id='127'> +5.2020608e+02 </wgt>
<wgt id='128'> +4.6666401e+02 </wgt>
<wgt id='129'> +5.7097587e+02 </wgt>
<wgt id='130'> +5.0836137e+02 </wgt>
<wgt id='131'> +5.3858780e+02 </wgt>
<wgt id='132'> +5.0429220e+02 </wgt>
<wgt id='133'> +5.0489622e+02 </wgt>
<wgt id='134'> +4.7727106e+02 </wgt>
<wgt id='135'> +5.1692029e+02 </wgt>
<wgt id='136'> +4.8917784e+02 </wgt>
<wgt id='137'> +4.7743469e+02 </wgt>
<wgt id='138'> +4.6332542e+02 </wgt>
<wgt id='139'> +5.1578384e+02 </wgt>
<wgt id='140'> +5.3339633e+02 </wgt>
<wgt id='141'> +5.0558177e+02 </wgt>
<wgt id='142'> +5.0247288e+02 </wgt>
<wgt id='143'> +5.0293695e+02 </wgt>
<wgt id='144'> +5.0215348e+02 </wgt>
<wgt id='145'> +5.0574194e+02 </wgt>
</rwgt>
</event>
<event>
 4      1 +5.0481800e+02 1.75035200e+02 7.54677100e-03 1.17269600e-01
       21 -1    0    0  501  502 +0.0000000000e+00 +0.0000000000e+00 +1.0734355950e+02 1.0734355950e+02 0.0000000000e+00 0.0000e+00 -1.0000e+00
       21 -1    0    0  502  503 -0.0000000000e+00 -0.0000000000e+00 -3.5123995648e+02 3.5123995648e+02 0.0000000000e+00 0.0000e+00 -1.0000e+00
        6  1    1    2  501    0 -1.9510789788e+01 +1.8100808992e+01 -2.2685416438e+01 1.7649911706e+02 1.7300000000e+02 0.0000e+00 1.0000e+00
       -6  1    1    2    0  503 +1.9510789788e+01 -1.8100808992e+01 -2.2121098053e+02 2.8208439892e+02 1.7300000000e+02 0.0000e+00 1.0000e+00
<mgrwt>
<rscale>  2 0.17503517E+03</rscale>
<asrwt>0</asrwt>
<pdfrwt beam="1">  1       21 0.16514394E-01 0.17503517E+03</pdfrwt>
<pdfrwt beam="2">  1       21 0.54036917E-01 0.17503517E+03</pdfrwt>
<totfact> 0.10724014E+05</totfact>
</mgrwt>
<rwgt>
<wgt id='1'> +6.4480930e+02 </wgt>
<wgt id='2'> +6.5449396e+02 </wgt>
<wgt id='3'> +5.0481800e+02 </wgt>
<wgt id='4'> +6.4480930e+02 </wgt>
<wgt id='5'> +4.8727043e+02 </wgt>
<wgt id='6'> +6.2226598e+02 </wgt>
<wgt id='7'> +6.3218967e+02 </wgt>
<wgt id='8'> +4.7747328e+02 </wgt>
<wgt id='9'> +6.2226598e+02 </wgt>
<wgt id='10'> +4.6032249e+02 </wgt>
<wgt id='11'> +5.8855940e+02 </wgt>
<wgt id='12'> +5.9835175e+02 </wgt>
<wgt id='13'> +4.5058825e+02 </wgt>
<wgt id='14'> +5.8855940e+02 </wgt>
<wgt id='15'> +4.3435717e+02 </wgt>
<wgt id='16'> +5.2310644e+02 </wgt>
<wgt id='17'> +5.3001340e+02 </wgt>
<wgt id='18'> +4.2376126e+02 </wgt>
<wgt id='19'> +5.2310644e+02 </wgt>
<wgt id='20'> +4.1032256e+02 </wgt>
<wgt id='21'> +5.1195125e+02 </wgt>
<wgt id='22'> +4.0080718e+02 </wgt>
<wgt id='23'> +5.0481800e+02 </wgt>
<wgt id='24'> +3.8763013e+02 </wgt>
<wgt id='25'> +4.7747328e+02 </wgt>
<wgt id='26'> +4.8454908e+02 </wgt>
<wgt id='27'> +3.7823898e+02 </wgt>
<wgt id='28'> +4.7747328e+02 </wgt>
<wgt id='29'> +3.6576516e+02 </wgt>
<wgt id='30'> +4.3911319e+02 </wgt>
<wgt id='31'> +4.4426708e+02 </wgt>
<wgt id='32'> +3.6103558e+02 </wgt>
<wgt id='33'> +4.3911319e+02 </wgt>
<wgt id='34'> +3.5024841e+02 </wgt>
<wgt id='35'> +4.2376126e+02 </wgt>
<wgt id='36'> +4.2912705e+02 </wgt>
<wgt id='37'> +3.4147919e+02 </wgt>
<wgt id='38'> +4.2376126e+02 </wgt>
<wgt id='39'> +3.3087832e+02 </wgt>
<wgt id='40'> +4.0080718e+02 </wgt>
<wgt id='41'> +4.0615804e+02 </wgt>
<wgt id='42'> +3.2225157e+02 </wgt>
<wgt id='43'> +4.0080718e+02 </wgt>
<wgt id='44'> +3.1221453e+02 </wgt>
<wgt id='45'> +5.0481800e+02 </wgt>
<wgt id='46'> +5.0389567e+02 </wgt>
<wgt id='47'> +5.2032817e+02 </wgt>
<wgt id='48'> +5.0499898e+02 </wgt>
<wgt id='49'> +5.0358955e+02 </wgt>
<wgt id='50'> +5.8158567e+02 </wgt>
<wgt id='51'> +4.9516521e+02 </wgt>
<wgt id='52'> +5.0245345e+02 </wgt>
<wgt id='53'> +5.1024630e+02 </wgt>
<wgt id='54'> +5.0773246e+02 </wgt>
<wgt id='55'> +4.5572642e+02 </wgt>
<wgt id='56'> +4.7157153e+02 </wgt>
<wgt id='57'> +4.9352463e+02 </wgt>
<wgt id='58'> +5.0961263e+02 </wgt>
<wgt id='59'> +4.9882511e+02 </wgt>
<wgt id='60'> +4.8596147e+02 </wgt>
<wgt id='61'> +4.9107945e+02 </wgt>
<wgt id='62'> +4.9778425e+02 </wgt>
<wgt id='63'> +5.0520070e+02 </wgt>
<wgt id='64'> +5.0117813e+02 </wgt>
<wgt id='65'> +5.8876811e+02 </wgt>
<wgt id='66'> +4.9271905e+02 </wgt>
<wgt id='67'> +5.0917993e+02 </wgt>
<wgt id='68'> +5.3909722e+02 </wgt>
<wgt id='69'> +4.9000939e+02 </wgt>
<wgt id='70'> +4.9715061e+02 </wgt>
<wgt id='71'> +5.1435679e+02 </wgt>
<wgt id='72'> +4.9563984e+02 </wgt>
<wgt id='73'> +4.9908067e+02 </wgt>
<wgt id='74'> +5.1839320e+02 </wgt>
<wgt id='75'> +5.1462704e+02 </wgt>
<wgt id='76'> +4.9202688e+02 </wgt>
<wgt id='77'> +4.8678927e+02 </wgt>
<wgt id='78'> +5.0515044e+02 </wgt>
<wgt id='79'> +4.8493380e+02 </wgt>
<wgt id='80'> +5.0080157e+02 </wgt>
<wgt id='81'> +4.9657166e+02 </wgt>
<wgt id='82'> +5.1723157e+02 </wgt>
<wgt id='83'> +5.1280883e+02 </wgt>
<wgt id='84'> +5.5031726e+02 </wgt>
<wgt id='85'> +5.2885153e+02 </wgt>
<wgt id='86'> +5.0038900e+02 </wgt>
<wgt id='87'> +5.0458232e+02 </wgt>
<wgt id='88'> +5.1134482e+02 </wgt>
<wgt id='89'> +5.1583189e+02 </wgt>
<wgt id='90'> +5.1092884e+02 </wgt>
<wgt id='91'> +5.3533867e+02 </wgt>
<wgt id='92'> +4.6994058e+02 </wgt>
<wgt id='93'> +4.9574103e+02 </wgt>
<wgt id='94'> +5.0316388e+02 </wgt>
<wgt id='95'> +4.8723437e+02 </wgt>
<wgt id='96'> +5.4063056e+02 </wgt>
<wgt id='97'> +5.1259603e+02 </wgt>
<wgt id='98'> +4.8255519e+02 </wgt>
<wgt id='99'> +4.9086364e+02 </wgt>
<wgt id='100'> +5.0266561e+02 </wgt>
<wgt id='101'> +5.2813868e+02 </wgt>
<wgt id='102'> +4.8946205e+02 </wgt>
<wgt id='103'> +5.4548800e+02 </wgt>
<wgt id='104'> +5.0252476e+02 </wgt>
<wgt id='105'> +5.2594687e+02 </wgt>
<wgt id='106'> +4.6861752e+02 </wgt>
<wgt id='107'> +5.0077031e+02 </wgt>
<wgt id='108'> +4.5595364e+02 </wgt>
<wgt id='109'> +4.7713566e+02 </wgt>
<wgt id='110'> +5.0665177e+02 </wgt>
<wgt id='111'> +4.9308495e+02 </wgt>
<wgt id='112'> +4.8307018e+02 </wgt>
<wgt id='113'> +4.6629506e+02 </wgt>
<wgt id='114'> +5.0550042e+02 </wgt>
<wgt id='115'> +5.0482161e+02 </wgt>
<wgt id='116'> +5.0238051e+02 </wgt>
<wgt id='117'> +5.1073795e+02 </wgt>
<wgt id='118'> +5.1546520e+02 </wgt>
<wgt id='119'> +4.8739899e+02 </wgt>
<wgt id='120'> +5.0178553e+02 </wgt>
<wgt id='121'> +4.9296790e+02 </wgt>
<wgt id='122'> +4.9905670e+02 </wgt>
<wgt id='123'> +5.0946342e+02 </wgt>
<wgt id='124'> +5.3641233e+02 </wgt>
<wgt id='125'> +5.3806098e+02 </wgt>
<wgt id='126'> +5.2171423e+02 </wgt>
<wgt id='127'> +5.1830095e+02 </wgt>
<wgt id='128'> +4.6928369e+02 </wgt>
<wgt id='129'> +5.6895063e+02 </wgt>
<wgt id='130'> +5.0611526e+02 </wgt>
<wgt id='131'> +5.3899868e+02 </wgt>
<wgt id='132'> +5.0152598e+02 </wgt>
<wgt id='133'> +5.0063248e+02 </wgt>
<wgt id='134'> +4.7694228e+02 </wgt>
<wgt id='135'> +5.1725375e+02 </wgt>
<wgt id='136'> +4.8684546e+02 </wgt>
<wgt id='137'> +4.7515675e+02 </wgt>
<wgt id='138'> +4.5734156e+02 </wgt>
<wgt id='139'> +5.1394141e+02 </wgt>
<wgt id='140'> +5.3555406e+02 </wgt>
<wgt id='141'> +5.0348440e+02 </wgt>
<wgt id='142'> +5.0831414e+02 </wgt>
<wgt id='143'> +5.0163017e+02 </wgt>
<wgt id='144'> +5.0603082e+02 </wgt>
<wgt id='145'> +5.0581099e+02 </wgt>
</rwgt>
</event>
<event>
 4      1 +5.0481800e+02 1.88639200e+02 7.54677100e-03 1.15969400e-01
       -2 -1    0    0    0  501 -0.0000000000e+00 +0.0000000000e+00 +1.0381927051e+02 1.0381927051e+02 0.0000000000e+00 0.0000e+00 -1.0000e+00
        2 -1    0    0  502    0 +0.0000000000e+00 -0.0000000000e+00 -3.5763477537e+02 3.5763477537e+02 0.0000000000e+00 0.0000e+00 1.0000e+00
        6  1    1    2  502    0 -3.5264947065e+01 -6.6423833142e+01 -1.7396788622e+02 2.5661170577e+02 1.7300000000e+02 0.0000e+00 1.0000e+00
       -6  1    1    2    0  501 +3.5264947065e+01 +6.6423833142e+01 -7.9847618643e+01 2.0484234011e+02 1.7300000000e+02 0.0000e+00 -1.0000e+00
<mgrwt>
<rscale>  2 0.18863918E+03</rscale>
<asrwt>0</asrwt>
<pdfrwt beam="2">  1        2 0.55020734E-01 0.18863918E+03</pdfrwt>
<pdfrwt beam="1">  1       -2 0.15972196E-01 0.18863918E+03</pdfrwt>
<totfact> 0.27388436E+03</totfact>
</mgrwt>
<rwgt>
<wgt id='1'> +6.0251811e+02 </wgt>
<wgt id='2'> +5.6396920e+02 </wgt>
<wgt id='3'> +5.0481800e+02 </wgt>
<wgt id='4'> +6.0251810e+02 </wgt>
<wgt id='5'> +5.0234241e+02 </wgt>
<wgt id='6'> +6.2009069e+02 </wgt>
<wgt id='7'> +5.7861618e+02 </wgt>
<wgt id='8'> +5.1538972e+02 </wgt>
<wgt id='9'> +6.2009068e+02 </wgt>
<wgt id='10'> +5.1274996e+02 </wgt>
<wgt id='11'> +6.3307641e+02 </wgt>
<wgt id='12'> +5.8927654e+02 </wgt>
<wgt id='13'> +5.2287663e+02 </wgt>
<wgt id='14'> +6.3307640e+02 </wgt>
<wgt id='15'> +5.2011089e+02 </wgt>
<wgt id='16'> +4.9051210e+02 </wgt>
<wgt id='17'> +4.6531010e+02 </wgt>
<wgt id='18'> +4.2475337e+02 </wgt>
<wgt id='19'> +4.9051210e+02 </wgt>
<wgt id='20'> +4.2292534e+02 </wgt>
<wgt id='21'> +4.7739477e+02 </wgt>
<wgt id='22'> +4.3364840e+02 </wgt>
<wgt id='23'> +5.0481800e+02 </wgt>
<wgt id='24'> +4.3168752e+02 </wgt>
<wgt id='25'> +5.1538972e+02 </wgt>
<wgt id='26'> +4.8619024e+02 </wgt>
<wgt id='27'> +4.3994789e+02 </wgt>
<wgt id='28'> +5.1538972e+02 </wgt>
<wgt id='29'> +4.3788474e+02 </wgt>
<wgt id='30'> +4.1271640e+02 </wgt>
<wgt id='31'> +3.9362214e+02 </wgt>
<wgt id='32'> +3.6237644e+02 </wgt>
<wgt id='33'> +4.1271640e+02 </wgt>
<wgt id='34'> +3.6095592e+02 </wgt>
<wgt id='35'> +4.2475337e+02 </wgt>
<wgt id='36'> +4.0384499e+02 </wgt>
<wgt id='37'> +3.6996520e+02 </wgt>
<wgt id='38'> +4.2475337e+02 </wgt>
<wgt id='39'> +3.6843422e+02 </wgt>
<wgt id='40'> +4.3364841e+02 </wgt>
<wgt id='41'> +4.1128538e+02 </wgt>
<wgt id='42'> +3.7533958e+02 </wgt>
<wgt id='43'> +4.3364840e+02 </wgt>
<wgt id='44'> +3.7372339e+02 </wgt>
<wgt id='45'> +5.0481800e+02 </wgt>
<wgt id='46'> +5.0514571e+02 </wgt>
<wgt id='47'> +4.8823560e+02 </wgt>
<wgt id='48'> +4.9556135e+02 </wgt>
<wgt id='49'> +5.0244752e+02 </wgt>
<wgt id='50'> +4.6555168e+02 </wgt>
<wgt id='51'> +5.1624060e+02 </wgt>
<wgt id='52'> +4.8898736e+02 </wgt>
<wgt id='53'> +5.1576878e+02 </wgt>
<wgt id='54'> +4.9505504e+02 </wgt>
<wgt id='55'> +4.8804705e+02 </wgt>
<wgt id='56'> +5.3757672e+02 </wgt>
<wgt id='57'> +4.9757965e+02 </wgt>
<wgt id='58'> +5.1519421e+02 </wgt>
<wgt id='59'> +4.9330123e+02 </wgt>
<wgt id='60'> +5.0383668e+02 </wgt>
<wgt id='61'> +5.5237402e+02 </wgt>
<wgt id='62'> +5.3334127e+02 </wgt>
<wgt id='63'> +5.1316073e+02 </wgt>
<wgt id='64'> +4.9956007e+02 </wgt>
<wgt id='65'> +4.8404556e+02 </wgt>
<wgt id='66'> +5.3390412e+02 </wgt>
<wgt id='67'> +5.1435675e+02 </wgt>
<wgt id='68'> +4.2336248e+02 </wgt>
<wgt id='69'> +4.7435942e+02 </wgt>
<wgt id='70'> +4.9255647e+02 </wgt>
<wgt id='71'> +5.1979159e+02 </wgt>
<wgt id='72'> +5.1427443e+02 </wgt>
<wgt id='73'> +5.1425191e+02 </wgt>
<wgt id='74'> +4.6087722e+02 </wgt>
<wgt id='75'> +4.7420022e+02 </wgt>
<wgt id='76'> +5.2477314e+02 </wgt>
<wgt id='77'> +5.2387811e+02 </wgt>
<wgt id='78'> +5.2357476e+02 </wgt>
<wgt id='79'> +5.1400347e+02 </wgt>
<wgt id='80'> +5.3515277e+02 </wgt>
<wgt id='81'> +5.0043629e+02 </wgt>
<wgt id='82'> +5.0488632e+02 </wgt>
<wgt id='83'> +4.7798290e+02 </wgt>
<wgt id='84'> +5.0952035e+02 </wgt>
<wgt id='85'> +4.9919303e+02 </wgt>
<wgt id='86'> +5.0307514e+02 </wgt>
<wgt id='87'> +5.1135870e+02 </wgt>
<wgt id='88'> +5.0847839e+02 </wgt>
<wgt id='89'> +5.1859422e+02 </wgt>
<wgt id='90'> +5.4592699e+02 </wgt>
<wgt id='91'> +4.8232576e+02 </wgt>
<wgt id='92'> +5.3085572e+02 </wgt>
<wgt id='93'> +4.9311237e+02 </wgt>
<wgt id='94'> +5.1098396e+02 </wgt>
<wgt id='95'> +5.0383160e+02 </wgt>
<wgt id='96'> +4.9369977e+02 </wgt>
<wgt id='97'> +5.1954854e+02 </wgt>
<wgt id='98'> +5.1068476e+02 </wgt>
<wgt id='99'> +5.3016955e+02 </wgt>
<wgt id='100'> +5.4764269e+02 </wgt>
<wgt id='101'> +4.5079476e+02 </wgt>
<wgt id='102'> +4.7368952e+02 </wgt>
<wgt id='103'> +4.8771117e+02 </wgt>
<wgt id='104'> +4.9847136e+02 </wgt>
<wgt id='105'> +4.9508307e+02 </wgt>
<wgt id='106'> +5.3193308e+02 </wgt>
<wgt id='107'> +4.9895501e+02 </wgt>
<wgt id='108'> +5.4437140e+02 </wgt>
<wgt id='109'> +5.2802010e+02 </wgt>
<wgt id='110'> +5.3124202e+02 </wgt>
<wgt id='111'> +5.2286069e+02 </wgt>
<wgt id='112'> +5.1442021e+02 </wgt>
<wgt id='113'> +5.0949149e+02 </wgt>
<wgt id='114'> +5.1189505e+02 </wgt>
<wgt id='115'> +5.2403201e+02 </wgt>
<wgt id='116'> +4.9761280e+02 </wgt>
<wgt id='117'> +5.0229151e+02 </wgt>
<wgt id='118'> +4.7424756e+02 </wgt>
<wgt id='119'> +5.0857064e+02 </wgt>
<wgt id='120'> +4.9844009e+02 </wgt>
<wgt id='121'> +5.1318921e+02 </wgt>
<wgt id='122'> +5.1902979e+02 </wgt>
<wgt id='123'> +5.3815538e+02 </wgt>
<wgt id='124'> +4.8094394e+02 </wgt>
<wgt id='125'> +4.4850852e+02 </wgt>
<wgt id='126'> +5.0016003e+02 </wgt>
<wgt id='127'> +5.0170190e+02 </wgt>
<wgt id='128'> +5.2233697e+02 </wgt>
<wgt id='129'> +4.6796720e+02 </wgt>
<wgt id='130'> +4.9459994e+02 </wgt>
<wgt id='131'> +4.9044703e+02 </wgt>
<wgt id='132'> +4.7404377e+02 </wgt>
<wgt id='133'> +5.0352349e+02 </wgt>
<wgt id='134'> +4.8862717e+02 </wgt>
<wgt id='135'> +4.9577407e+02 </wgt>
<wgt id='136'> +4.8854303e+02 </wgt>
<wgt id='137'> +5.2769850e+02 </wgt>
<wgt id='138'> +5.1205311e+02 </wgt>
<wgt id='139'> +4.8929922e+02 </wgt>
<wgt id='140'> +4.8476293e+02 </wgt>
<wgt id='141'> +4.8282250e+02 </wgt>
<wgt id='142'> +5.5380768e+02 </wgt>
<wgt id='143'> +5.1975406e+02 </wgt>
<wgt id='144'> +5.3627165e+02 </wgt>
<wgt id='145'> +5.1967155e+02 </wgt>
</rwgt>
</event>
<event>
 4      1 +5.0481800e+02 1.93134000e+02 7.54677100e-03 1.15566500e-01
       21 -1    0    0  501  502 +0.0000000000e+00 +0.0000000000e+00 +2.5142651223e+02 2.5142651223e+02 0.0000000000e+00 0.0000e+00 1.0000e+00
       21 -1    0    0  502  503 -0.0000000000e+00 -0.0000000000e+00 -1.6876140260e+02 1.6876140260e+02 0.0000000000e+00 0.0000e+00 -1.0000e+00
        6  1    1    2  501    0 +6.1019077133e+01 +6.0402190331e+01 +1.1438663432e+02 2.2446615442e+02 1.7300000000e+02 0.0000e+00 -1.0000e+00
       -6  1    1    2    0  503 -6.1019077133e+01 -6.0402190331e+01 -3.1721524687e+01 1.9572176041e+02 1.7300000000e+02 0.0000e+00 -1.0000e+00
<mgrwt>
<rscale>  2 0.19313403E+03</rscale>
<asrwt>0</asrwt>
<pdfrwt beam="1">  1       21 0.38681002E-01 0.19313403E+03</pdfrwt>
<pdfrwt beam="2">  1       21 0.25963293E-01 0.19313403E+03</pdfrwt>
<totfact> 0.90793867E+04</totfact>
</mgrwt>
<rwgt>
<wgt id='1'> +6.4502007e+02 </wgt>
<wgt id='2'> +5.3971717e+02 </wgt>
<wgt id='3'> +5.0481800e+02 </wgt>
<wgt id='4'> +6.4502008e+02 </wgt>
<wgt id='5'> +4.9381693e+02 </wgt>
<wgt id='6'> +6.1939708e+02 </wgt>
<wgt id='7'> +5.1032728e+02 </wgt>
<wgt id='8'> +4.7596797e+02 </wgt>
<wgt id='9'> +6.1939708e+02 </wgt>
<wgt id='10'> +4.6545352e+02 </wgt>
<wgt id='11'> +5.8399893e+02 </wgt>
<wgt id='12'> +4.8078770e+02 </wgt>
<wgt id='13'> +4.4835083e+02 </wgt>
<wgt id='14'> +5.8399893e+02 </wgt>
<wgt id='15'> +4.3843159e+02 </wgt>
<wgt id='16'> +5.2570113e+02 </wgt>
<wgt id='17'> +4.5142795e+02 </wgt>
<wgt id='18'> +4.2503675e+02 </wgt>
<wgt id='19'> +5.2570113e+02 </wgt>
<wgt id='20'> +4.1641384e+02 </wgt>
<wgt id='21'> +4.2684578e+02 </wgt>
<wgt id='22'> +4.0074617e+02 </wgt>
<wgt id='23'> +5.0481800e+02 </wgt>
<wgt id='24'> +3.9249624e+02 </wgt>
<wgt id='25'> +4.7596797e+02 </wgt>
<wgt id='26'> +4.0213841e+02 </wgt>
<wgt id='27'> +3.7749362e+02 </wgt>
<wgt id='28'> +4.7596797e+02 </wgt>
<wgt id='29'> +3.6970985e+02 </wgt>
<wgt id='30'> +4.4261951e+02 </wgt>
<wgt id='31'> +3.8392081e+02 </wgt>
<wgt id='32'> +3.6277308e+02 </wgt>
<wgt id='33'> +4.4261951e+02 </wgt>
<wgt id='34'> +3.5582698e+02 </wgt>
<wgt id='35'> +4.2503675e+02 </wgt>
<wgt id='36'> +3.6301469e+02 </wgt>
<wgt id='37'> +3.4204083e+02 </wgt>
<wgt id='38'> +4.2503675e+02 </wgt>
<wgt id='39'> +3.3538931e+02 </wgt>
<wgt id='40'> +4.0074616e+02 </wgt>
<wgt id='41'> +3.4200209e+02 </wgt>
<wgt id='42'> +3.2219455e+02 </wgt>
<wgt id='43'> +4.0074617e+02 </wgt>
<wgt id='44'> +3.1591826e+02 </wgt>
<wgt id='45'> +5.0481800e+02 </wgt>
<wgt id='46'> +5.0235449e+02 </wgt>
<wgt id='47'> +5.2167632e+02 </wgt>
<wgt id='48'> +5.0488285e+02 </wgt>
<wgt id='49'> +5.0419537e+02 </wgt>
<wgt id='50'> +5.8270541e+02 </wgt>
<wgt id='51'> +4.9516600e+02 </wgt>
<wgt id='52'> +5.0119421e+02 </wgt>
<wgt id='53'> +5.1316041e+02 </wgt>
<wgt id='54'> +5.0761058e+02 </wgt>
<wgt id='55'> +4.5063681e+02 </wgt>
<wgt id='56'> +4.7260138e+02 </wgt>
<wgt id='57'> +4.9070823e+02 </wgt>
<wgt id='58'> +5.1060060e+02 </wgt>
<wgt id='59'> +4.9388798e+02 </wgt>
<wgt id='60'> +4.8113137e+02 </wgt>
<wgt id='61'> +4.9813007e+02 </wgt>
<wgt id='62'> +4.9791858e+02 </wgt>
<wgt id='63'> +5.0526636e+02 </wgt>
<wgt id='64'> +5.0253701e+02 </wgt>
<wgt id='65'> +5.9710417e+02 </wgt>
<wgt id='66'> +4.9234178e+02 </wgt>
<wgt id='67'> +5.0943210e+02 </wgt>
<wgt id='68'> +5.3738796e+02 </wgt>
<wgt id='69'> +4.8956363e+02 </wgt>
<wgt id='70'> +4.9684601e+02 </wgt>
<wgt id='71'> +5.1454273e+02 </wgt>
<wgt id='72'> +4.9460037e+02 </wgt>
<wgt id='73'> +4.9951314e+02 </wgt>
<wgt id='74'> +5.1690637e+02 </wgt>
<wgt id='75'> +5.1545771e+02 </wgt>
<wgt id='76'> +4.9027198e+02 </wgt>
<wgt id='77'> +4.8455863e+02 </wgt>
<wgt id='78'> +5.0858329e+02 </wgt>
<wgt id='79'> +4.8227635e+02 </wgt>
<wgt id='80'> +5.0172942e+02 </wgt>
<wgt id='81'> +4.9642988e+02 </wgt>
<wgt id='82'> +5.2062593e+02 </wgt>
<wgt id='83'> +5.1441103e+02 </wgt>
<wgt id='84'> +5.5376900e+02 </wgt>
<wgt id='85'> +5.3196311e+02 </wgt>
<wgt id='86'> +5.0003464e+02 </wgt>
<wgt id='87'> +5.0384920e+02 </wgt>
<wgt id='88'> +5.1326173e+02 </wgt>
<wgt id='89'> +5.1574670e+02 </wgt>
<wgt id='90'> +5.0926605e+02 </wgt>
<wgt id='91'> +5.3853573e+02 </wgt>
<wgt id='92'> +4.6842021e+02 </wgt>
<wgt id='93'> +4.9469030e+02 </wgt>
<wgt id='94'> +5.0410070e+02 </wgt>
<wgt id='95'> +4.8458087e+02 </wgt>
<wgt id='96'> +5.4283626e+02 </wgt>
<wgt id='97'> +5.1447557e+02 </wgt>
<wgt id='98'> +4.8061127e+02 </wgt>
<wgt id='99'> +4.9148715e+02 </wgt>
<wgt id='100'> +5.0577546e+02 </wgt>
<wgt id='101'> +5.2450538e+02 </wgt>
<wgt id='102'> +4.8534763e+02 </wgt>
<wgt id='103'> +5.4633460e+02 </wgt>
<wgt id='104'> +5.0274136e+02 </wgt>
<wgt id='105'> +5.2632026e+02 </wgt>
<wgt id='106'> +4.6820966e+02 </wgt>
<wgt id='107'> +5.0307526e+02 </wgt>
<wgt id='108'> +4.5643558e+02 </wgt>
<wgt id='109'> +4.7653316e+02 </wgt>
<wgt id='110'> +5.0661140e+02 </wgt>
<wgt id='111'> +4.9300241e+02 </wgt>
<wgt id='112'> +4.8425638e+02 </wgt>
<wgt id='113'> +4.6518233e+02 </wgt>
<wgt id='114'> +5.0789869e+02 </wgt>
<wgt id='115'> +5.1130530e+02 </wgt>
<wgt id='116'> +5.0043318e+02 </wgt>
<wgt id='117'> +5.1362253e+02 </wgt>
<wgt id='118'> +5.1400982e+02 </wgt>
<wgt id='119'> +4.8609623e+02 </wgt>
<wgt id='120'> +5.0636011e+02 </wgt>
<wgt id='121'> +4.9152811e+02 </wgt>
<wgt id='122'> +4.9866083e+02 </wgt>
<wgt id='123'> +5.1073643e+02 </wgt>
<wgt id='124'> +5.3419210e+02 </wgt>
<wgt id='125'> +5.3572083e+02 </wgt>
<wgt id='126'> +5.2307002e+02 </wgt>
<wgt id='127'> +5.1860064e+02 </wgt>
<wgt id='128'> +4.7158043e+02 </wgt>
<wgt id='129'> +5.7035360e+02 </wgt>
<wgt id='130'> +5.0868457e+02 </wgt>
<wgt id='131'> +5.4138427e+02 </wgt>
<wgt id='132'> +4.9540271e+02 </wgt>
<wgt id='133'> +4.9822343e+02 </wgt>
<wgt id='134'> +4.7361816e+02 </wgt>
<wgt id='135'> +5.1798884e+02 </wgt>
<wgt id='136'> +4.8046433e+02 </wgt>
<wgt id='137'> +4.7430523e+02 </wgt>
<wgt id='138'> +4.5606869e+02 </wgt>
<wgt id='139'> +5.1291349e+02 </wgt>
<wgt id='140'> +5.3878151e+02 </wgt>
<wgt id='141'> +5.0303911e+02 </wgt>
<wgt id='142'> +5.1264812e+02 </wgt>
<wgt id='143'> +4.9826872e+02 </wgt>
<wgt id='144'> +5.0638389e+02 </wgt>
<wgt id='145'> +5.0596043e+02 </wgt>
</rwgt>
</event>
<event>
 4      1 +5.0481800e+02 1.83283300e+02 7.54677100e-03 1.16466300e-01
       21 -1    0    0  503  502 +0.0000000000e+00 +0.0000000000e+00 +7.3913766629e+02 7.3913766629e+02 0.0000000000e+00 0.0000e+00 -1.0000e+00
       21 -1    0    0  501  503 -0.0000000000e+00 -0.0000000000e+00 -1.2655070551e+02 1.2655070551e+02 0.0000000000e+00 0.0000e+00 1.0000e+00
        6  1    1    2  501    0 -5.8697066261e+01 +1.4778617458e+01 -4.0216251483e+01 1.8764354507e+02 1.7300000000e+02 0.0000e+00 1.0000e+00
       -6  1    1    2    0  502 +5.8697066261e+01 -1.4778617458e+01 +6.5280321226e+02 6.7804482673e+02 1.7300000000e+02 0.0000e+00 -1.0000e+00
<mgrwt>
<rscale>  2 0.18328326E+03</rscale>
<asrwt>0</asrwt>
<pdfrwt beam="1">  1       21 0.11371348E+00 0.18328326E+03</pdfrwt>
<pdfrwt beam="2">  1       21 0.19469340E-01 0.18328326E+03</pdfrwt>
<totfact> 0.14716048E+04</totfact>
</mgrwt>
<rwgt>
<wgt id='1'> +6.7084355e+02 </wgt>
<wgt id='2'> +6.2254283e+02 </wgt>
<wgt id='3'> +5.0481800e+02 </wgt>
<wgt id='4'> +6.7084355e+02 </wgt>
<wgt id='5'> +4.1401572e+02 </wgt>
<wgt id='6'> +6.2089071e+02 </wgt>
<wgt id='7'> +5.7369556e+02 </wgt>
<wgt id='8'> +4.6011448e+02 </wgt>
<wgt id='9'> +6.2089071e+02 </wgt>
<wgt id='10'> +3.7776147e+02 </wgt>
<wgt id='11'> +5.6590852e+02 </wgt>
<wgt id='12'> +5.2288647e+02 </wgt>
<wgt id='13'> +4.2007780e+02 </wgt>
<wgt id='14'> +5.6590852e+02 </wgt>
<wgt id='15'> +3.4553806e+02 </wgt>
<wgt id='16'> +5.4543238e+02 </wgt>
<wgt id='17'> +5.1086305e+02 </wgt>
<wgt id='18'> +4.2438935e+02 </wgt>
<wgt id='19'> +5.4543238e+02 </wgt>
<wgt id='20'> +3.5183589e+02 </wgt>
<wgt id='21'> +4.7077864e+02 </wgt>
<wgt id='22'> +3.8680809e+02 </wgt>
<wgt id='23'> +5.0481800e+02 </wgt>
<wgt id='24'> +3.2102656e+02 </wgt>
<wgt id='25'> +4.6011448e+02 </wgt>
<wgt id='26'> +4.2908434e+02 </wgt>
<wgt id='27'> +3.5315014e+02 </wgt>
<wgt id='28'> +4.6011448e+02 </wgt>
<wgt id='29'> +2.9364269e+02 </wgt>
<wgt id='30'> +4.5853297e+02 </wgt>
<wgt id='31'> +4.3129511e+02 </wgt>
<wgt id='32'> +3.6187620e+02 </wgt>
<wgt id='33'> +4.5853297e+02 </wgt>
<wgt id='34'> +3.0268139e+02 </wgt>
<wgt id='35'> +4.2438935e+02 </wgt>
<wgt id='36'> +3.9745393e+02 </wgt>
<wgt id='37'> +3.2983071e+02 </wgt>
<wgt id='38'> +4.2438935e+02 </wgt>
<wgt id='39'> +2.7617639e+02 </wgt>
<wgt id='40'> +3.8680809e+02 </wgt>
<wgt id='41'> +3.6225360e+02 </wgt>
<wgt id='42'> +3.0113062e+02 </wgt>
<wgt id='43'> +3.8680809e+02 </wgt>
<wgt id='44'> +2.5261828e+02 </wgt>
<wgt id='45'> +5.0481800e+02 </wgt>
<wgt id='46'> +5.1833592e+02 </wgt>
<wgt id='47'> +5.2259400e+02 </wgt>
<wgt id='48'> +5.0915374e+02 </wgt>
<wgt id='49'> +4.9255516e+02 </wgt>
<wgt id='50'> +6.1314477e+02 </wgt>
<wgt id='51'> +4.8943605e+02 </wgt>
<wgt id='52'> +5.0115397e+02 </wgt>
<wgt id='53'> +4.9831012e+02 </wgt>
<wgt id='54'> +5.1669781e+02 </wgt>
<wgt id='55'> +4.8309684e+02 </wgt>
<wgt id='56'> +4.5877886e+02 </wgt>
<wgt id='57'> +5.0971882e+02 </wgt>
<wgt id='58'> +4.8724396e+02 </wgt>
<wgt id='59'> +5.2793814e+02 </wgt>
<wgt id='60'> +5.0312271e+02 </wgt>
<wgt id='61'> +4.3818778e+02 </wgt>
<wgt id='62'> +4.9191757e+02 </wgt>
<wgt id='63'> +5.0979224e+02 </wgt>
<wgt id='64'> +4.9507826e+02 </wgt>
<wgt id='65'> +5.5741681e+02 </wgt>
<wgt id='66'> +4.9723223e+02 </wgt>
<wgt id='67'> +5.0757868e+02 </wgt>
<wgt id='68'> +5.6533010e+02 </wgt>
<wgt id='69'> +5.1117429e+02 </wgt>
<wgt id='70'> +5.0080969e+02 </wgt>
<wgt id='71'> +5.0561249e+02 </wgt>
<wgt id='72'> +4.7834308e+02 </wgt>
<wgt id='73'> +4.8267304e+02 </wgt>
<wgt id='74'> +5.4124137e+02 </wgt>
<wgt id='75'> +5.2037137e+02 </wgt>
<wgt id='76'> +4.9963690e+02 </wgt>
<wgt id='77'> +4.9328888e+02 </wgt>
<wgt id='78'> +4.7518613e+02 </wgt>
<wgt id='79'> +5.0262553e+02 </wgt>
<wgt id='80'> +4.8501640e+02 </wgt>
<wgt id='81'> +4.9617028e+02 </wgt>
<wgt id='82'> +4.9436368e+02 </wgt>
<wgt id='83'> +5.1149679e+02 </wgt>
<wgt id='84'> +5.4126382e+02 </wgt>
<wgt id='85'> +5.0908482e+02 </wgt>
<wgt id='86'> +5.1099290e+02 </wgt>
<wgt id='87'> +5.0805631e+02 </wgt>
<wgt id='88'> +5.0684945e+02 </wgt>
<wgt id='89'> +5.0389217e+02 </wgt>
<wgt id='90'> +5.1064003e+02 </wgt>
<wgt id='91'> +5.0911636e+02 </wgt>
<wgt id='92'> +4.5561904e+02 </wgt>
<wgt id='93'> +5.0369087e+02 </wgt>
<wgt id='94'> +4.8523311e+02 </wgt>
<wgt id='95'> +5.0119337e+02 </wgt>
<wgt id='96'> +5.4400929e+02 </wgt>
<wgt id='97'> +4.9366474e+02 </wgt>
<wgt id='98'> +4.9829092e+02 </wgt>
<wgt id='99'> +4.7006689e+02 </wgt>
<wgt id='100'> +4.5600902e+02 </wgt>
<wgt id='101'> +5.6655336e+02 </wgt>
<wgt id='102'> +5.2795152e+02 </wgt>
<wgt id='103'> +5.4038917e+02 </wgt>
<wgt id='104'> +5.1470237e+02 </wgt>
<wgt id='105'> +5.2007518e+02 </wgt>
<wgt id='106'> +4.5818208e+02 </wgt>
<wgt id='107'> +4.7729357e+02 </wgt>
<wgt id='108'> +4.4320449e+02 </wgt>
<wgt id='109'> +4.7532112e+02 </wgt>
<wgt id='110'> +4.9520258e+02 </wgt>
<wgt id='111'> +4.9001828e+02 </wgt>
<wgt id='112'> +4.8181722e+02 </wgt>
<wgt id='113'> +4.7054639e+02 </wgt>
<wgt id='114'> +4.9627240e+02 </wgt>
<wgt id='115'> +4.7558000e+02 </wgt>
<wgt id='116'> +5.2942931e+02 </wgt>
<wgt id='117'> +4.9816560e+02 </wgt>
<wgt id='118'> +5.3227433e+02 </wgt>
<wgt id='119'> +4.9782504e+02 </wgt>
<wgt id='120'> +4.9578024e+02 </wgt>
<wgt id='121'> +4.9498335e+02 </wgt>
<wgt id='122'> +4.9818522e+02 </wgt>
<wgt id='123'> +5.0727946e+02 </wgt>
<wgt id='124'> +5.6572359e+02 </wgt>
<wgt id='125'> +5.7601684e+02 </wgt>
<wgt id='126'> +5.1954141e+02 </wgt>
<wgt id='127'> +5.1571162e+02 </wgt>
<wgt id='128'> +4.5908464e+02 </wgt>
<wgt id='129'> +5.6406102e+02 </wgt>
<wgt id='130'> +4.9964980e+02 </wgt>
<wgt id='131'> +5.2023580e+02 </wgt>
<wgt id='132'> +5.3388371e+02 </wgt>
<wgt id='133'> +5.2474212e+02 </wgt>
<wgt id='134'> +4.9366022e+02 </wgt>
<wgt id='135'> +5.0871159e+02 </wgt>
<wgt id='136'> +5.3043396e+02 </wgt>
<wgt id='137'> +4.8786577e+02 </wgt>
<wgt id='138'> +4.8054287e+02 </wgt>
<wgt id='139'> +5.2142322e+02 </wgt>
<wgt id='140'> +5.1651268e+02 </wgt>
<wgt id='141'> +5.2049312e+02 </wgt>
<wgt id='142'> +4.6064604e+02 </wgt>
<wgt id='143'> +5.1532534e+02 </wgt>
<wgt id='144'> +4.8775954e+02 </wgt>
<wgt id='145'> +4.9630536e+02 </wgt>
</rwgt>
</event>
<event>
 4      1 +5.0481800e+02 1.79516300e+02 7.54677100e-03 1.16827200e-01
       21 -1    0    0  501  502 +0.0000000000e+00 +0.0000000000e+00 +2.1936589465e+02 2.1936589465e+02 0.0000000000e+00 0.0000e+00 1.0000e+00
       21 -1    0    0  502  503 -0.0000000000e+00 -0.0000000000e+00 -1.6815808747e+02 1.6815808747e+02 0.0000000000e+00 0.0000e+00 1.0000e+00
        6  1    1    2  501    0 +2.5602595803e+01 -4.0516846485e+01 -4.3279282164e+01 1.8465969789e+02 1.7300000000e+02 0.0000e+00 1.0000e+00
       -6  1    1    2    0  503 -2.5602595803e+01 +4.0516846485e+01 +9.4487089352e+01 2.0286428423e+02 1.7300000000e+02 0.0000e+00 1.0000e+00
<mgrwt>
<rscale>  2 0.17951632E+03</rscale>
<asrwt>0</asrwt>
<pdfrwt beam="1">  1       21 0.33748599E-01 0.17951632E+03</pdfrwt>
<pdfrwt beam="2">  1       21 0.25870475E-01 0.17951632E+03</pdfrwt>
<totfact> 0.12054448E+05</totfact>
</mgrwt>
<rwgt>
<wgt id='1'> +6.4264932e+02 </wgt>
<wgt id='2'> +5.8957360e+02 </wgt>
<wgt id='3'> +5.0481800e+02 </wgt>
<wgt id='4'> +6.4264932e+02 </wgt>
<wgt id='5'> +4.9345623e+02 </wgt>
<wgt id='6'> +6.2151424e+02 </wgt>
<wgt id='7'> +5.6582588e+02 </wgt>
<wgt id='8'> +4.7851436e+02 </wgt>
<wgt id='9'> +6.2151425e+02 </wgt>
<wgt id='10'> +4.6738468e+02 </wgt>
<wgt id='11'> +5.8913011e+02 </wgt>
<wgt id='12'> +5.3565229e+02 </wgt>
<wgt id='13'> +4.5261809e+02 </wgt>
<wgt id='14'> +5.8913012e+02 </wgt>
<wgt id='15'> +4.4205322e+02 </wgt>
<wgt id='16'> +5.2198473e+02 </wgt>
<wgt id='17'> +4.8498648e+02 </wgt>
<wgt id='18'> +4.2411360e+02 </wgt>
<wgt id='19'> +5.2198474e+02 </wgt>
<wgt id='20'> +4.1540621e+02 </wgt>
<wgt id='21'> +4.6545149e+02 </wgt>
<wgt id='22'> +4.0201507e+02 </wgt>
<wgt id='23'> +5.0481800e+02 </wgt>
<wgt id='24'> +3.9345840e+02 </wgt>
<wgt id='25'> +4.7851435e+02 </wgt>
<wgt id='26'> +4.4063052e+02 </wgt>
<wgt id='27'> +3.8025880e+02 </wgt>
<wgt id='28'> +4.7851436e+02 </wgt>
<wgt id='29'> +3.7213362e+02 </wgt>
<wgt id='30'> +4.3853591e+02 </wgt>
<wgt id='31'> +4.0979255e+02 </wgt>
<wgt id='32'> +3.6150398e+02 </wgt>
<wgt id='33'> +4.3853592e+02 </wgt>
<wgt id='34'> +3.5451760e+02 </wgt>
<wgt id='35'> +4.2411360e+02 </wgt>
<wgt id='36'> +3.9328632e+02 </wgt>
<wgt id='37'> +3.4266774e+02 </wgt>
<wgt id='38'> +4.2411360e+02 </wgt>
<wgt id='39'> +3.3578682e+02 </wgt>
<wgt id='40'> +4.0201507e+02 </wgt>
<wgt id='41'> +3.7231368e+02 </wgt>
<wgt id='42'> +3.2412323e+02 </wgt>
<wgt id='43'> +4.0201507e+02 </wgt>
<wgt id='44'> +3.1758774e+02 </wgt>
<wgt id='45'> +5.0481800e+02 </wgt>
<wgt id='46'> +5.0034629e+02 </wgt>
<wgt id='47'> +5.2047496e+02 </wgt>
<wgt id='48'> +5.0358348e+02 </wgt>
<wgt id='49'> +5.0433853e+02 </wgt>
<wgt id='50'> +5.7717443e+02 </wgt>
<wgt id='51'> +4.9513230e+02 </wgt>
<wgt id='52'> +5.0069416e+02 </wgt>
<wgt id='53'> +5.1478135e+02 </wgt>
<wgt id='54'> +5.0762523e+02 </wgt>
<wgt id='55'> +4.5110793e+02 </wgt>
<wgt id='56'> +4.7481434e+02 </wgt>
<wgt id='57'> +4.9081536e+02 </wgt>
<wgt id='58'> +5.1250226e+02 </wgt>
<wgt id='59'> +4.9179084e+02 </wgt>
<wgt id='60'> +4.7913882e+02 </wgt>
<wgt id='61'> +5.0216730e+02 </wgt>
<wgt id='62'> +4.9749107e+02 </wgt>
<wgt id='63'> +5.0524706e+02 </wgt>
<wgt id='64'> +5.0446434e+02 </wgt>
<wgt id='65'> +5.9737938e+02 </wgt>
<wgt id='66'> +4.9188854e+02 </wgt>
<wgt id='67'> +5.0943689e+02 </wgt>
<wgt id='68'> +5.3496799e+02 </wgt>
<wgt id='69'> +4.8705335e+02 </wgt>
<wgt id='70'> +4.9725588e+02 </wgt>
<wgt id='71'> +5.1466270e+02 </wgt>
<wgt id='72'> +4.9843856e+02 </wgt>
<wgt id='73'> +5.0049628e+02 </wgt>
<wgt id='74'> +5.1469315e+02 </wgt>
<wgt id='75'> +5.1485675e+02 </wgt>
<wgt id='76'> +4.9084117e+02 </wgt>
<wgt id='77'> +4.8327699e+02 </wgt>
<wgt id='78'> +5.1090419e+02 </wgt>
<wgt id='79'> +4.8099328e+02 </wgt>
<wgt id='80'> +5.0251021e+02 </wgt>
<wgt id='81'> +4.9725680e+02 </wgt>
<wgt id='82'> +5.2184028e+02 </wgt>
<wgt id='83'> +5.1331773e+02 </wgt>
<wgt id='84'> +5.5259359e+02 </wgt>
<wgt id='85'> +5.3192101e+02 </wgt>
<wgt id='86'> +4.9873857e+02 </wgt>
<wgt id='87'> +5.0309145e+02 </wgt>
<wgt id='88'> +5.1259243e+02 </wgt>
<wgt id='89'> +5.1475390e+02 </wgt>
<wgt id='90'> +5.0851569e+02 </wgt>
<wgt id='91'> +5.3912486e+02 </wgt>
<wgt id='92'> +4.7224902e+02 </wgt>
<wgt id='93'> +4.9351629e+02 </wgt>
<wgt id='94'> +5.0559926e+02 </wgt>
<wgt id='95'> +4.8557949e+02 </wgt>
<wgt id='96'> +5.4004745e+02 </wgt>
<wgt id='97'> +5.1572101e+02 </wgt>
<wgt id='98'> +4.8017513e+02 </wgt>
<wgt id='99'> +4.9232953e+02 </wgt>
<wgt id='100'> +5.0932682e+02 </wgt>
<wgt id='101'> +5.2038535e+02 </wgt>
<wgt id='102'> +4.8184371e+02 </wgt>
<wgt id='103'> +5.4458573e+02 </wgt>
<wgt id='104'> +5.0165436e+02 </wgt>
<wgt id='105'> +5.2783550e+02 </wgt>
<wgt id='106'> +4.7168352e+02 </wgt>
<wgt id='107'> +5.0662665e+02 </wgt>
<wgt id='108'> +4.5980219e+02 </wgt>
<wgt id='109'> +4.7866977e+02 </wgt>
<wgt id='110'> +5.0731462e+02 </wgt>
<wgt id='111'> +4.9427839e+02 </wgt>
<wgt id='112'> +4.8620717e+02 </wgt>
<wgt id='113'> +4.6685572e+02 </wgt>
<wgt id='114'> +5.1151706e+02 </wgt>
<wgt id='115'> +5.1507806e+02 </wgt>
<wgt id='116'> +4.9738459e+02 </wgt>
<wgt id='117'> +5.1492667e+02 </wgt>
<wgt id='118'> +5.1124681e+02 </wgt>
<wgt id='119'> +4.8717665e+02 </wgt>
<wgt id='120'> +5.0872529e+02 </wgt>
<wgt id='121'> +4.9266853e+02 </wgt>
<wgt id='122'> +4.9910271e+02 </wgt>
<wgt id='123'> +5.0994813e+02 </wgt>
<wgt id='124'> +5.3067549e+02 </wgt>
<wgt id='125'> +5.3255160e+02 </wgt>
<wgt id='126'> +5.2176434e+02 </wgt>
<wgt id='127'> +5.1751095e+02 </wgt>
<wgt id='128'> +4.7348754e+02 </wgt>
<wgt id='129'> +5.6927876e+02 </wgt>
<wgt id='130'> +5.0801050e+02 </wgt>
<wgt id='131'> +5.4154254e+02 </wgt>
<wgt id='132'> +4.9323438e+02 </wgt>
<wgt id='133'> +4.9598259e+02 </wgt>
<wgt id='134'> +4.7314564e+02 </wgt>
<wgt id='135'> +5.1802630e+02 </wgt>
<wgt id='136'> +4.7883409e+02 </wgt>
<wgt id='137'> +4.7340302e+02 </wgt>
<wgt id='138'> +4.5347645e+02 </wgt>
<wgt id='139'> +5.1174955e+02 </wgt>
<wgt id='140'> +5.4011307e+02 </wgt>
<wgt id='141'> +5.0231392e+02 </wgt>
<wgt id='142'> +5.1544373e+02 </wgt>
<wgt id='143'> +4.9706385e+02 </wgt>
<wgt id='144'> +5.0797602e+02 </wgt>
<wgt id='145'> +5.0588667e+02 </wgt>
</rwgt>
</event>
<event>
 4      1 +5.0481800e+02 1.77758200e+02 7.54677100e-03 1.16999000e-01
       21 -1    0    0  503  502 +0.0000000000e+00 +0.0000000000e+00 +6.4797347131e+01 6.4797347131e+01 0.0000000000e+00 0.0000e+00 1.0000e+00
       21 -1    0    0  501  503 -0.0000000000e+00 -0.0000000000e+00 -6.8075079038e+02 6.8075079038e+02 0.0000000000e+00 0.0000e+00 1.0000e+00
        6  1    1    2  501    0 +4.0687695370e+01 +3.6748894773e+00 -5.0651815650e+02 5.3680409483e+02 1.7300000000e+02 0.0000e+00 1.0000e+00
       -6  1    1    2    0  502 -4.0687695370e+01 -3.6748894773e+00 -1.0943528675e+02 2.0874404268e+02 1.7300000000e+02 0.0000e+00 1.0000e+00
<mgrwt>
<rscale>  2 0.17775824E+03</rscale>
<asrwt>0</asrwt>
<pdfrwt beam="1">  1       21 0.99688229E-02 0.17775824E+03</pdfrwt>
<pdfrwt beam="2">  1       21 0.10473089E+00 0.17775824E+03</pdfrwt>
<totfact> 0.60413920E+04</totfact>
</mgrwt>
<rwgt>
<wgt id='1'> +6.5400676e+02 </wgt>
<wgt id='2'> +7.7274923e+02 </wgt>
<wgt id='3'> +5.0481800e+02 </wgt>
<wgt id='4'> +6.5400675e+02 </wgt>
<wgt id='5'> +4.7543355e+02 </wgt>
<wgt id='6'> +6.2181312e+02 </wgt>
<wgt id='7'> +7.3879574e+02 </wgt>
<wgt id='8'> +4.7103061e+02 </wgt>
<wgt id='9'> +6.2181311e+02 </wgt>
<wgt id='10'> +4.4314545e+02 </wgt>
<wgt id='11'> +5.8019527e+02 </wgt>
<wgt id='12'> +6.9693486e+02 </wgt>
<wgt id='13'> +4.3903573e+02 </wgt>
<wgt id='14'> +5.8019526e+02 </wgt>
<wgt id='15'> +4.1307230e+02 </wgt>
<wgt id='16'> +5.3095435e+02 </wgt>
<wgt id='17'> +6.1776246e+02 </wgt>
<wgt id='18'> +4.2397868e+02 </wgt>
<wgt id='19'> +5.3095435e+02 </wgt>
<wgt id='20'> +4.0106898e+02 </wgt>
<wgt id='21'> +5.9061886e+02 </wgt>
<wgt id='22'> +3.9560185e+02 </wgt>
<wgt id='23'> +5.0481800e+02 </wgt>
<wgt id='24'> +3.7383120e+02 </wgt>
<wgt id='25'> +4.7103061e+02 </wgt>
<wgt id='26'> +5.5715383e+02 </wgt>
<wgt id='27'> +3.6873050e+02 </wgt>
<wgt id='28'> +4.7103061e+02 </wgt>
<wgt id='29'> +3.4846191e+02 </wgt>
<wgt id='30'> +4.4592968e+02 </wgt>
<wgt id='31'> +5.0858404e+02 </wgt>
<wgt id='32'> +3.6132375e+02 </wgt>
<wgt id='33'> +4.4592968e+02 </wgt>
<wgt id='34'> +3.4283369e+02 </wgt>
<wgt id='35'> +4.2397868e+02 </wgt>
<wgt id='36'> +4.8623758e+02 </wgt>
<wgt id='37'> +3.3714041e+02 </wgt>
<wgt id='38'> +4.2397868e+02 </wgt>
<wgt id='39'> +3.1955085e+02 </wgt>
<wgt id='40'> +3.9560186e+02 </wgt>
<wgt id='41'> +4.5868689e+02 </wgt>
<wgt id='42'> +3.1424006e+02 </wgt>
<wgt id='43'> +3.9560185e+02 </wgt>
<wgt id='44'> +2.9786518e+02 </wgt>
<wgt id='45'> +5.0481800e+02 </wgt>
<wgt id='46'> +5.1447403e+02 </wgt>
<wgt id='47'> +5.1801662e+02 </wgt>
<wgt id='48'> +5.0660433e+02 </wgt>
<wgt id='49'> +4.9527319e+02 </wgt>
<wgt id='50'> +5.9302264e+02 </wgt>
<wgt id='51'> +4.9140060e+02 </wgt>
<wgt id='52'> +5.0284200e+02 </wgt>
<wgt id='53'> +4.9876988e+02 </wgt>
<wgt id='54'> +5.1432844e+02 </wgt>
<wgt id='55'> +4.8481693e+02 </wgt>
<wgt id='56'> +4.6460692e+02 </wgt>
<wgt id='57'> +5.0940340e+02 </wgt>
<wgt id='58'> +4.9423633e+02 </wgt>
<wgt id='59'> +5.2462259e+02 </wgt>
<wgt id='60'> +5.0460308e+02 </wgt>
<wgt id='61'> +4.4675086e+02 </wgt>
<wgt id='62'> +4.9339834e+02 </wgt>
<wgt id='63'> +5.0855088e+02 </wgt>
<wgt id='64'> +4.9755979e+02 </wgt>
<wgt id='65'> +5.5131999e+02 </wgt>
<wgt id='66'> +4.9659054e+02 </wgt>
<wgt id='67'> +5.0750431e+02 </wgt>
<wgt id='68'> +5.5609489e+02 </wgt>
<wgt id='69'> +5.0316562e+02 </wgt>
<wgt id='70'> +5.0091494e+02 </wgt>
<wgt id='71'> +5.0737151e+02 </wgt>
<wgt id='72'> +4.8862524e+02 </wgt>
<wgt id='73'> +4.8813622e+02 </wgt>
<wgt id='74'> +5.3393887e+02 </wgt>
<wgt id='75'> +5.1644880e+02 </wgt>
<wgt id='76'> +5.0072580e+02 </wgt>
<wgt id='77'> +4.9418684e+02 </wgt>
<wgt id='78'> +4.8127689e+02 </wgt>
<wgt id='79'> +5.0104120e+02 </wgt>
<wgt id='80'> +4.8948224e+02 </wgt>
<wgt id='81'> +4.9759790e+02 </wgt>
<wgt id='82'> +4.9660616e+02 </wgt>
<wgt id='83'> +5.0788225e+02 </wgt>
<wgt id='84'> +5.3596153e+02 </wgt>
<wgt id='85'> +5.0981238e+02 </wgt>
<wgt id='86'> +5.0727373e+02 </wgt>
<wgt id='87'> +5.0743860e+02 </wgt>
<wgt id='88'> +5.0452910e+02 </wgt>
<wgt id='89'> +5.0632165e+02 </wgt>
<wgt id='90'> +5.1214700e+02 </wgt>
<wgt id='91'> +5.1189307e+02 </wgt>
<wgt id='92'> +4.6636313e+02 </wgt>
<wgt id='93'> +5.0227621e+02 </wgt>
<wgt id='94'> +4.9034747e+02 </wgt>
<wgt id='95'> +5.0249417e+02 </wgt>
<wgt id='96'> +5.3570249e+02 </wgt>
<wgt id='97'> +4.9726377e+02 </wgt>
<wgt id='98'> +4.9664290e+02 </wgt>
<wgt id='99'> +4.7675884e+02 </wgt>
<wgt id='100'> +4.6857886e+02 </wgt>
<wgt id='101'> +5.5540417e+02 </wgt>
<wgt id='102'> +5.1967313e+02 </wgt>
<wgt id='103'> +5.3750582e+02 </wgt>
<wgt id='104'> +5.0953189e+02 </wgt>
<wgt id='105'> +5.2184787e+02 </wgt>
<wgt id='106'> +4.6622636e+02 </wgt>
<wgt id='107'> +4.8426314e+02 </wgt>
<wgt id='108'> +4.5121167e+02 </wgt>
<wgt id='109'> +4.7996433e+02 </wgt>
<wgt id='110'> +4.9945220e+02 </wgt>
<wgt id='111'> +4.9246162e+02 </wgt>
<wgt id='112'> +4.8340485e+02 </wgt>
<wgt id='113'> +4.7400100e+02 </wgt>
<wgt id='114'> +4.9901280e+02 </wgt>
<wgt id='115'> +4.7867364e+02 </wgt>
<wgt id='116'> +5.2126689e+02 </wgt>
<wgt id='117'> +4.9872027e+02 </wgt>
<wgt id='118'> +5.2643277e+02 </wgt>
<wgt id='119'> +4.9837119e+02 </wgt>
<wgt id='120'> +4.9447860e+02 </wgt>
<wgt id='121'> +4.9817861e+02 </wgt>
<wgt id='122'> +4.9950430e+02 </wgt>
<wgt id='123'> +5.0519788e+02 </wgt>
<wgt id='124'> +5.5545903e+02 </wgt>
<wgt id='125'> +5.6370301e+02 </wgt>
<wgt id='126'> +5.1677550e+02 </wgt>
<wgt id='127'> +5.1457303e+02 </wgt>
<wgt id='128'> +4.6163167e+02 </wgt>
<wgt id='129'> +5.5990740e+02 </wgt>
<wgt id='130'> +4.9782313e+02 </wgt>
<wgt id='131'> +5.2150352e+02 </wgt>
<wgt id='132'> +5.3113508e+02 </wgt>
<wgt id='133'> +5.1915453e+02 </wgt>
<wgt id='134'> +4.9422449e+02 </wgt>
<wgt id='135'> +5.0968860e+02 </wgt>
<wgt id='136'> +5.2597091e+02 </wgt>
<wgt id='137'> +4.8536486e+02 </wgt>
<wgt id='138'> +4.7459580e+02 </wgt>
<wgt id='139'> +5.1938270e+02 </wgt>
<wgt id='140'> +5.1769624e+02 </wgt>
<wgt id='141'> +5.1542684e+02 </wgt>
<wgt id='142'> +4.7249154e+02 </wgt>
<wgt id='143'> +5.1520575e+02 </wgt>
<wgt id='144'> +4.9409010e+02 </wgt>
<wgt id='145'> +4.9816485e+02 </wgt>
</rwgt>
</event>
<event>
 4      1 +5.0481800e+02 1.77133600e+02 7.54677100e-03 1.17060600e-01
       21 -1    0    0  501  502 +0.0000000000e+00 +0.0000000000e+00 +7.1168448120e+01 7.1168448120e+01 0.0000000000e+00 0.0000e+00 1.0000e+00
       21 -1    0    0  502  503 -0.0000000000e+00 -0.0000000000e+00 -7.7854503543e+02 7.7854503543e+02 0.0000000000e+00 0.0000e+00 1.0000e+00
        6  1    1    2  501    0 -8.9135634383e+00 -3.6984736695e+01 -7.3888420489e+01 1.9192660327e+02 1.7300000000e+02 0.0000e+00 1.0000e+00
       -6  1    1    2    0  503 +8.9135634383e+00 +3.6984736695e+01 -6.3348816682e+02 6.5778688028e+02 1.7300000000e+02 0.0000e+00 1.0000e+00
<mgrwt>
<rscale>  2 0.17713363E+03</rscale>
<asrwt>0</asrwt>
<pdfrwt beam="1">  1       21 0.10948992E-01 0.17713363E+03</pdfrwt>
<pdfrwt beam="2">  1       21 0.11977616E+00 0.17713363E+03</pdfrwt>
<totfact> 0.36982888E+04</totfact>
</mgrwt>
<rwgt>
<wgt id='1'> +6.6105517e+02 </wgt>
<wgt id='2'> +7.5629147e+02 </wgt>
<wgt id='3'> +5.0481800e+02 </wgt>
<wgt id='4'> +6.6105517e+02 </wgt>
<wgt id='5'> +4.5414879e+02 </wgt>
<wgt id='6'> +6.2191806e+02 </wgt>
<wgt id='7'> +7.1417670e+02 </wgt>
<wgt id='8'> +4.6657993e+02 </wgt>
<wgt id='9'> +6.2191806e+02 </wgt>
<wgt id='10'> +4.1947299e+02 </wgt>
<wgt id='11'> +5.7481010e+02 </wgt>
<wgt id='12'> +6.6517172e+02 </wgt>
<wgt id='13'> +4.3113767e+02 </wgt>
<wgt id='14'> +5.7481011e+02 </wgt>
<wgt id='15'> +3.8778865e+02 </wgt>
<wgt id='16'> +5.3658604e+02 </wgt>
<wgt id='17'> +6.0658956e+02 </wgt>
<wgt id='18'> +4.2392974e+02 </wgt>
<wgt id='19'> +5.3658604e+02 </wgt>
<wgt id='20'> +3.8395557e+02 </wgt>
<wgt id='21'> +5.7281108e+02 </wgt>
<wgt id='22'> +3.9181866e+02 </wgt>
<wgt id='23'> +5.0481800e+02 </wgt>
<wgt id='24'> +3.5463925e+02 </wgt>
<wgt id='25'> +4.6657993e+02 </wgt>
<wgt id='26'> +5.3350625e+02 </wgt>
<wgt id='27'> +3.6205540e+02 </wgt>
<wgt id='28'> +4.6657993e+02 </wgt>
<wgt id='29'> +3.2785205e+02 </wgt>
<wgt id='30'> +4.5060751e+02 </wgt>
<wgt id='31'> +5.0175172e+02 </wgt>
<wgt id='32'> +3.6125864e+02 </wgt>
<wgt id='33'> +4.5060751e+02 </wgt>
<wgt id='34'> +3.2886005e+02 </wgt>
<wgt id='35'> +4.2392974e+02 </wgt>
<wgt id='36'> +4.7381123e+02 </wgt>
<wgt id='37'> +3.3389466e+02 </wgt>
<wgt id='38'> +4.2392974e+02 </wgt>
<wgt id='39'> +3.0375047e+02 </wgt>
<wgt id='40'> +3.9181866e+02 </wgt>
<wgt id='41'> +4.4129951e+02 </wgt>
<wgt id='42'> +3.0853141e+02 </wgt>
<wgt id='43'> +3.9181866e+02 </wgt>
<wgt id='44'> +2.8080708e+02 </wgt>
<wgt id='45'> +5.0481800e+02 </wgt>
<wgt id='46'> +5.1684778e+02 </wgt>
<wgt id='47'> +5.1828617e+02 </wgt>
<wgt id='48'> +5.0690917e+02 </wgt>
<wgt id='49'> +4.9110085e+02 </wgt>
<wgt id='50'> +5.9848705e+02 </wgt>
<wgt id='51'> +4.8896404e+02 </wgt>
<wgt id='52'> +5.0056746e+02 </wgt>
<wgt id='53'> +4.9785301e+02 </wgt>
<wgt id='54'> +5.1791948e+02 </wgt>
<wgt id='55'> +4.9455685e+02 </wgt>
<wgt id='56'> +4.6383380e+02 </wgt>
<wgt id='57'> +5.1437122e+02 </wgt>
<wgt id='58'> +4.8801459e+02 </wgt>
<wgt id='59'> +5.3085201e+02 </wgt>
<wgt id='60'> +5.0638835e+02 </wgt>
<wgt id='61'> +4.3856830e+02 </wgt>
<wgt id='62'> +4.9027422e+02 </wgt>
<wgt id='63'> +5.1108837e+02 </wgt>
<wgt id='64'> +4.9796472e+02 </wgt>
<wgt id='65'> +5.4187823e+02 </wgt>
<wgt id='66'> +4.9797682e+02 </wgt>
<wgt id='67'> +5.0721917e+02 </wgt>
<wgt id='68'> +5.6380769e+02 </wgt>
<wgt id='69'> +5.0895228e+02 </wgt>
<wgt id='70'> +5.0372204e+02 </wgt>
<wgt id='71'> +5.0357725e+02 </wgt>
<wgt id='72'> +4.8505424e+02 </wgt>
<wgt id='73'> +4.8287350e+02 </wgt>
<wgt id='74'> +5.4010145e+02 </wgt>
<wgt id='75'> +5.1918436e+02 </wgt>
<wgt id='76'> +5.0362649e+02 </wgt>
<wgt id='77'> +4.9369446e+02 </wgt>
<wgt id='78'> +4.7359321e+02 </wgt>
<wgt id='79'> +5.0579058e+02 </wgt>
<wgt id='80'> +4.8397227e+02 </wgt>
<wgt id='81'> +4.9907579e+02 </wgt>
<wgt id='82'> +4.9193177e+02 </wgt>
<wgt id='83'> +5.0680339e+02 </wgt>
<wgt id='84'> +5.3208068e+02 </wgt>
<wgt id='85'> +5.0299907e+02 </wgt>
<wgt id='86'> +5.1002339e+02 </wgt>
<wgt id='87'> +5.0731159e+02 </wgt>
<wgt id='88'> +5.0249349e+02 </wgt>
<wgt id='89'> +4.9912534e+02 </wgt>
<wgt id='90'> +5.0925974e+02 </wgt>
<wgt id='91'> +5.0301101e+02 </wgt>
<wgt id='92'> +4.6492575e+02 </wgt>
<wgt id='93'> +5.0354735e+02 </wgt>
<wgt id='94'> +4.8557347e+02 </wgt>
<wgt id='95'> +5.0760160e+02 </wgt>
<wgt id='96'> +5.3529322e+02 </wgt>
<wgt id='97'> +4.9180006e+02 </wgt>
<wgt id='98'> +5.0163203e+02 </wgt>
<wgt id='99'> +4.6934615e+02 </wgt>
<wgt id='100'> +4.5533119e+02 </wgt>
<wgt id='101'> +5.6357940e+02 </wgt>
<wgt id='102'> +5.2873003e+02 </wgt>
<wgt id='103'> +5.3288217e+02 </wgt>
<wgt id='104'> +5.1362123e+02 </wgt>
<wgt id='105'> +5.2128572e+02 </wgt>
<wgt id='106'> +4.6669489e+02 </wgt>
<wgt id='107'> +4.8093397e+02 </wgt>
<wgt id='108'> +4.5106604e+02 </wgt>
<wgt id='109'> +4.8162937e+02 </wgt>
<wgt id='110'> +4.9525161e+02 </wgt>
<wgt id='111'> +4.9247004e+02 </wgt>
<wgt id='112'> +4.8714755e+02 </wgt>
<wgt id='113'> +4.7812411e+02 </wgt>
<wgt id='114'> +5.0089592e+02 </wgt>
<wgt id='115'> +4.7415118e+02 </wgt>
<wgt id='116'> +5.2745711e+02 </wgt>
<wgt id='117'> +4.9675640e+02 </wgt>
<wgt id='118'> +5.2853212e+02 </wgt>
<wgt id='119'> +5.0410987e+02 </wgt>
<wgt id='120'> +4.9642467e+02 </wgt>
<wgt id='121'> +4.9928946e+02 </wgt>
<wgt id='122'> +4.9933322e+02 </wgt>
<wgt id='123'> +5.0354000e+02 </wgt>
<wgt id='124'> +5.6127527e+02 </wgt>
<wgt id='125'> +5.7431985e+02 </wgt>
<wgt id='126'> +5.1462570e+02 </wgt>
<wgt id='127'> +5.1186793e+02 </wgt>
<wgt id='128'> +4.6198348e+02 </wgt>
<wgt id='129'> +5.5657413e+02 </wgt>
<wgt id='130'> +4.9447365e+02 </wgt>
<wgt id='131'> +5.1451683e+02 </wgt>
<wgt id='132'> +5.3779141e+02 </wgt>
<wgt id='133'> +5.2495553e+02 </wgt>
<wgt id='134'> +4.9902497e+02 </wgt>
<wgt id='135'> +5.0634447e+02 </wgt>
<wgt id='136'> +5.3806980e+02 </wgt>
<wgt id='137'> +4.8955656e+02 </wgt>
<wgt id='138'> +4.8052354e+02 </wgt>
<wgt id='139'> +5.2031103e+02 </wgt>
<wgt id='140'> +5.1331149e+02 </wgt>
<wgt id='141'> +5.2174410e+02 </wgt>
<wgt id='142'> +4.5619476e+02 </wgt>
<wgt id='143'> +5.1729932e+02 </wgt>
<wgt id='144'> +4.8873579e+02 </wgt>
<wgt id='145'> +4.9403739e+02 </wgt>
</rwgt>
</event>
<event>
 4      1 +5.0481800e+02 1.92304800e+02 7.54677100e-03 1.15639900e-01
       21 -1    0    0  501  502 +0.0000000000e+00 +0.0000000000e+00 +5.0077476502e+02 5.0077476502e+02 0.0000000000e+00 0.0000e+00 1.0000e+00
       21 -1    0    0  502  503 -0.0000000000e+00 -0.0000000000e+00 -9.0043473859e+01 9.0043473859e+01 0.0000000000e+00 0.0000e+00 1.0000e+00
        6  1    1    2  501    0 +5.8065176314e+01 +6.0667590873e+01 +3.3065007865e+02 3.8250568074e+02 1.7300000000e+02 0.0000e+00 1.0000e+00
       -6  1    1    2    0  503 -5.8065176314e+01 -6.0667590873e+01 +8.0081212508e+01 2.0831255814e+02 1.7300000000e+02 0.0000e+00 1.0000e+00
<mgrwt>
<rscale>  2 0.19230476E+03</rscale>
<asrwt>0</asrwt>
<pdfrwt beam="1">  1       21 0.77042270E-01 0.19230476E+03</pdfrwt>
<pdfrwt beam="2">  1       21 0.13852842E-01 0.19230476E+03</pdfrwt>
<totfact> 0.67868320E+04</totfact>
</mgrwt>
<rwgt>
<wgt id='1'> +6.4952224e+02 </wgt>
<wgt id='2'> +5.9374338e+02 </wgt>
<wgt id='3'> +5.0481800e+02 </wgt>
<wgt id='4'> +6.4952224e+02 </wgt>
<wgt id='5'> +4.8755348e+02 </wgt>
<wgt id='6'> +6.1952605e+02 </wgt>
<wgt id='7'> +5.6204118e+02 </wgt>
<wgt id='8'> +4.7297288e+02 </wgt>
<wgt id='9'> +6.1952605e+02 </wgt>
<wgt id='10'> +4.5665723e+02 </wgt>
<wgt id='11'> +5.8044487e+02 </wgt>
<wgt id='12'> +5.2641611e+02 </wgt>
<wgt id='13'> +4.4290964e+02 </wgt>
<wgt id='14'> +5.8044487e+02 </wgt>
<wgt id='15'> +4.2763585e+02 </wgt>
<wgt id='16'> +5.2926027e+02 </wgt>
<wgt id='17'> +4.9015019e+02 </wgt>
<wgt id='18'> +4.2498584e+02 </wgt>
<wgt id='19'> +5.2926026e+02 </wgt>
<wgt id='20'> +4.1138096e+02 </wgt>
<wgt id='21'> +4.6397921e+02 </wgt>
<wgt id='22'> +3.9817672e+02 </wgt>
<wgt id='23'> +5.0481800e+02 </wgt>
<wgt id='24'> +3.8531176e+02 </wgt>
<wgt id='25'> +4.7297288e+02 </wgt>
<wgt id='26'> +4.3456982e+02 </wgt>
<wgt id='27'> +3.7286771e+02 </wgt>
<wgt id='28'> +4.7297288e+02 </wgt>
<wgt id='29'> +3.6082452e+02 </wgt>
<wgt id='30'> +4.4556280e+02 </wgt>
<wgt id='31'> +4.1472573e+02 </wgt>
<wgt id='32'> +3.6270136e+02 </wgt>
<wgt id='33'> +4.4556280e+02 </wgt>
<wgt id='34'> +3.5171699e+02 </wgt>
<wgt id='35'> +4.2498585e+02 </wgt>
<wgt id='36'> +3.9258196e+02 </wgt>
<wgt id='37'> +3.3982130e+02 </wgt>
<wgt id='38'> +4.2498584e+02 </wgt>
<wgt id='39'> +3.2942869e+02 </wgt>
<wgt id='40'> +3.9817672e+02 </wgt>
<wgt id='41'> +3.6769809e+02 </wgt>
<wgt id='42'> +3.1822148e+02 </wgt>
<wgt id='43'> +3.9817672e+02 </wgt>
<wgt id='44'> +3.0849292e+02 </wgt>
<wgt id='45'> +5.0481800e+02 </wgt>
<wgt id='46'> +5.0982631e+02 </wgt>
<wgt id='47'> +5.2050288e+02 </wgt>
<wgt id='48'> +5.0728945e+02 </wgt>
<wgt id='49'> +5.0065971e+02 </wgt>
<wgt id='50'> +5.9077849e+02 </wgt>
<wgt id='51'> +4.9416171e+02 </wgt>
<wgt id='52'> +5.0367014e+02 </wgt>
<wgt id='53'> +5.0419560e+02 </wgt>
<wgt id='54'> +5.0979560e+02 </wgt>
<wgt id='55'> +4.6598992e+02 </wgt>
<wgt id='56'> +4.6633594e+02 </wgt>
<wgt id='57'> +4.9958397e+02 </wgt>
<wgt id='58'> +5.0252119e+02 </wgt>
<wgt id='59'> +5.1081214e+02 </wgt>
<wgt id='60'> +4.9528006e+02 </wgt>
<wgt id='61'> +4.6559473e+02 </wgt>
<wgt id='62'> +4.9697301e+02 </wgt>
<wgt id='63'> +5.0586486e+02 </wgt>
<wgt id='64'> +4.9762539e+02 </wgt>
<wgt id='65'> +5.7494752e+02 </wgt>
<wgt id='66'> +4.9443560e+02 </wgt>
<wgt id='67'> +5.0856075e+02 </wgt>
<wgt id='68'> +5.4764647e+02 </wgt>
<wgt id='69'> +4.9700343e+02 </wgt>
<wgt id='70'> +4.9766964e+02 </wgt>
<wgt id='71'> +5.1241079e+02 </wgt>
<wgt id='72'> +4.9042911e+02 </wgt>
<wgt id='73'> +4.9462289e+02 </wgt>
<wgt id='74'> +5.2578288e+02 </wgt>
<wgt id='75'> +5.1547560e+02 </wgt>
<wgt id='76'> +4.9496094e+02 </wgt>
<wgt id='77'> +4.9131540e+02 </wgt>
<wgt id='78'> +4.9440025e+02 </wgt>
<wgt id='79'> +4.9195507e+02 </wgt>
<wgt id='80'> +4.9608348e+02 </wgt>
<wgt id='81'> +4.9593239e+02 </wgt>
<wgt id='82'> +5.0773793e+02 </wgt>
<wgt id='83'> +5.1204553e+02 </wgt>
<wgt id='84'> +5.4624971e+02 </wgt>
<wgt id='85'> +5.2194508e+02 </wgt>
<wgt id='86'> +5.0381815e+02 </wgt>
<wgt id='87'> +5.0656970e+02 </wgt>
<wgt id='88'> +5.0916650e+02 </wgt>
<wgt id='89'> +5.1423957e+02 </wgt>
<wgt id='90'> +5.1310524e+02 </wgt>
<wgt id='91'> +5.2667817e+02 </wgt>
<wgt id='92'> +4.6575246e+02 </wgt>
<wgt id='93'> +4.9923908e+02 </wgt>
<wgt id='94'> +4.9753827e+02 </wgt>
<wgt id='95'> +4.9223554e+02 </wgt>
<wgt id='96'> +5.4080875e+02 </wgt>
<wgt id='97'> +5.0619552e+02 </wgt>
<wgt id='98'> +4.8782348e+02 </wgt>
<wgt id='99'> +4.8553827e+02 </wgt>
<wgt id='100'> +4.8761854e+02 </wgt>
<wgt id='101'> +5.4205480e+02 </wgt>
<wgt id='102'> +5.0384888e+02 </wgt>
<wgt id='103'> +5.4469258e+02 </wgt>
<wgt id='104'> +5.0573455e+02 </wgt>
<wgt id='105'> +5.2319706e+02 </wgt>
<wgt id='106'> +4.6478762e+02 </wgt>
<wgt id='107'> +4.9112267e+02 </wgt>
<wgt id='108'> +4.5090694e+02 </wgt>
<wgt id='109'> +4.7612319e+02 </wgt>
<wgt id='110'> +5.0371312e+02 </wgt>
<wgt id='111'> +4.9196210e+02 </wgt>
<wgt id='112'> +4.8020192e+02 </wgt>
<wgt id='113'> +4.6722575e+02 </wgt>
<wgt id='114'> +4.9913176e+02 </wgt>
<wgt id='115'> +4.9128510e+02 </wgt>
<wgt id='116'> +5.1200330e+02 </wgt>
<wgt id='117'> +5.0484141e+02 </wgt>
<wgt id='118'> +5.2232898e+02 </wgt>
<wgt id='119'> +4.8981279e+02 </wgt>
<wgt id='120'> +4.9615265e+02 </wgt>
<wgt id='121'> +4.9402216e+02 </wgt>
<wgt id='122'> +4.9940534e+02 </wgt>
<wgt id='123'> +5.0879748e+02 </wgt>
<wgt id='124'> +5.4679157e+02 </wgt>
<wgt id='125'> +5.4976993e+02 </wgt>
<wgt id='126'> +5.2113762e+02 </wgt>
<wgt id='127'> +5.1830124e+02 </wgt>
<wgt id='128'> +4.6406327e+02 </wgt>
<wgt id='129'> +5.6698352e+02 </wgt>
<wgt id='130'> +5.0251170e+02 </wgt>
<wgt id='131'> +5.3248020e+02 </wgt>
<wgt id='132'> +5.1532748e+02 </wgt>
<wgt id='133'> +5.0942367e+02 </wgt>
<wgt id='134'> +4.8395717e+02 </wgt>
<wgt id='135'> +5.1462976e+02 </wgt>
<wgt id='136'> +5.0296636e+02 </wgt>
<wgt id='137'> +4.7955475e+02 </wgt>
<wgt id='138'> +4.6585608e+02 </wgt>
<wgt id='139'> +5.1702730e+02 </wgt>
<wgt id='140'> +5.2754081e+02 </wgt>
<wgt id='141'> +5.0773263e+02 </wgt>
<wgt id='142'> +4.9148608e+02 </wgt>
<wgt id='143'> +5.0836380e+02 </wgt>
<wgt id='144'> +5.0068803e+02 </wgt>
<wgt id='145'> +5.0411788e+02 </wgt>
</rwgt>
</event>
<event>
 4      1 +5.0481800e+02 1.83281700e+02 7.54677100e-03 1.16466400e-01
       21 -1    0    0  501  502 +0.0000000000e+00 +0.0000000000e+00 +4.8877559096e+02 4.8877559096e+02 0.0000000000e+00 0.0000e+00 -1.0000e+00
       21 -1    0    0  502  503 -0.0000000000e+00 -0.0000000000e+00 -9.2940187223e+01 9.2940187223e+01 0.0000000000e+00 0.0000e+00 -1.0000e+00
        6  1    1    2  501    0 +2.0283756443e+01 -5.7024012722e+01 +3.4637564112e+02 3.9187785542e+02 1.7300000000e+02 0.0000e+00 -1.0000e+00
       -6  1    1    2    0  503 -2.0283756443e+01 +5.7024012722e+01 +4.9459762612e+01 1.8983792277e+02 1.7300000000e+02 0.0000e+00 -1.0000e+00
<mgrwt>
<rscale>  2 0.18328167E+03</rscale>
<asrwt>0</asrwt>
<pdfrwt beam="1">  1       21 0.75196243E-01 0.18328167E+03</pdfrwt>
<pdfrwt beam="2">  1       21 0.14298491E-01 0.18328167E+03</pdfrwt>
<totfact> 0.67925404E+04</totfact>
</mgrwt>
<rwgt>
<wgt id='1'> +6.5010433e+02 </wgt>
<wgt id='2'> +6.1304391e+02 </wgt>
<wgt id='3'> +5.0481800e+02 </wgt>
<wgt id='4'> +6.5010433e+02 </wgt>
<wgt id='5'> +4.7873695e+02 </wgt>
<wgt id='6'> +6.2089094e+02 </wgt>
<wgt id='7'> +5.8281472e+02 </wgt>
<wgt id='8'> +4.7322398e+02 </wgt>
<wgt id='9'> +6.2089095e+02 </wgt>
<wgt id='10'> +4.4843911e+02 </wgt>
<wgt id='11'> +5.8203250e+02 </wgt>
<wgt id='12'> +5.4593175e+02 </wgt>
<wgt id='13'> +4.4318519e+02 </wgt>
<wgt id='14'> +5.8203251e+02 </wgt>
<wgt id='15'> +4.1997865e+02 </wgt>
<wgt id='16'> +5.2857006e+02 </wgt>
<wgt id='17'> +5.0248801e+02 </wgt>
<wgt id='18'> +4.2438925e+02 </wgt>
<wgt id='19'> +5.2857007e+02 </wgt>
<wgt id='20'> +4.0397051e+02 </wgt>
<wgt id='21'> +4.7771033e+02 </wgt>
<wgt id='22'> +3.9782886e+02 </wgt>
<wgt id='23'> +5.0481800e+02 </wgt>
<wgt id='24'> +3.7840442e+02 </wgt>
<wgt id='25'> +4.7322398e+02 </wgt>
<wgt id='26'> +4.4747881e+02 </wgt>
<wgt id='27'> +3.7257591e+02 </wgt>
<wgt id='28'> +4.7322398e+02 </wgt>
<wgt id='29'> +3.5438875e+02 </wgt>
<wgt id='30'> +4.4435707e+02 </wgt>
<wgt id='31'> +4.2406176e+02 </wgt>
<wgt id='32'> +3.6187605e+02 </wgt>
<wgt id='33'> +4.4435707e+02 </wgt>
<wgt id='34'> +3.4540393e+02 </wgt>
<wgt id='35'> +4.2438924e+02 </wgt>
<wgt id='36'> +4.0315128e+02 </wgt>
<wgt id='37'> +3.3922805e+02 </wgt>
<wgt id='38'> +4.2438925e+02 </wgt>
<wgt id='39'> +3.2354435e+02 </wgt>
<wgt id='40'> +3.9782885e+02 </wgt>
<wgt id='41'> +3.7763817e+02 </wgt>
<wgt id='42'> +3.1769490e+02 </wgt>
<wgt id='43'> +3.9782886e+02 </wgt>
<wgt id='44'> +3.0301040e+02 </wgt>
<wgt id='45'> +5.0481800e+02 </wgt>
<wgt id='46'> +5.0932270e+02 </wgt>
<wgt id='47'> +5.2064478e+02 </wgt>
<wgt id='48'> +5.0716678e+02 </wgt>
<wgt id='49'> +5.0107644e+02 </wgt>
<wgt id='50'> +5.9067226e+02 </wgt>
<wgt id='51'> +4.9427964e+02 </wgt>
<wgt id='52'> +5.0369778e+02 </wgt>
<wgt id='53'> +5.0471524e+02 </wgt>
<wgt id='54'> +5.0950597e+02 </wgt>
<wgt id='55'> +4.6432815e+02 </wgt>
<wgt id='56'> +4.6645899e+02 </wgt>
<wgt id='57'> +4.9877415e+02 </wgt>
<wgt id='58'> +5.0329402e+02 </wgt>
<wgt id='59'> +5.0959656e+02 </wgt>
<wgt id='60'> +4.9433762e+02 </wgt>
<wgt id='61'> +4.6787523e+02 </wgt>
<wgt id='62'> +4.9714925e+02 </wgt>
<wgt id='63'> +5.0570776e+02 </wgt>
<wgt id='64'> +4.9779010e+02 </wgt>
<wgt id='65'> +5.7715749e+02 </wgt>
<wgt id='66'> +4.9413451e+02 </wgt>
<wgt id='67'> +5.0863997e+02 </wgt>
<wgt id='68'> +5.4694529e+02 </wgt>
<wgt id='69'> +4.9623482e+02 </wgt>
<wgt id='70'> +4.9740185e+02 </wgt>
<wgt id='71'> +5.1277221e+02 </wgt>
<wgt id='72'> +4.9072420e+02 </wgt>
<wgt id='73'> +4.9512703e+02 </wgt>
<wgt id='74'> +5.2511919e+02 </wgt>
<wgt id='75'> +5.1539639e+02 </wgt>
<wgt id='76'> +4.9445487e+02 </wgt>
<wgt id='77'> +4.9088564e+02 </wgt>
<wgt id='78'> +4.9551968e+02 </wgt>
<wgt id='79'> +4.9105955e+02 </wgt>
<wgt id='80'> +4.9660558e+02 </wgt>
<wgt id='81'> +4.9580173e+02 </wgt>
<wgt id='82'> +5.0879184e+02 </wgt>
<wgt id='83'> +5.1230236e+02 </wgt>
<wgt id='84'> +5.4714957e+02 </wgt>
<wgt id='85'> +5.2302283e+02 </wgt>
<wgt id='86'> +5.0346190e+02 </wgt>
<wgt id='87'> +5.0645381e+02 </wgt>
<wgt id='88'> +5.0949610e+02 </wgt>
<wgt id='89'> +5.1483537e+02 </wgt>
<wgt id='90'> +5.1310251e+02 </wgt>
<wgt id='91'> +5.2793639e+02 </wgt>
<wgt id='92'> +4.6567415e+02 </wgt>
<wgt id='93'> +4.9888778e+02 </wgt>
<wgt id='94'> +4.9812341e+02 </wgt>
<wgt id='95'> +4.9142118e+02 </wgt>
<wgt id='96'> +5.4125592e+02 </wgt>
<wgt id='97'> +5.0695583e+02 </wgt>
<wgt id='98'> +4.8701394e+02 </wgt>
<wgt id='99'> +4.8616424e+02 </wgt>
<wgt id='100'> +4.8921159e+02 </wgt>
<wgt id='101'> +5.4092005e+02 </wgt>
<wgt id='102'> +5.0232848e+02 </wgt>
<wgt id='103'> +5.4536501e+02 </wgt>
<wgt id='104'> +5.0534899e+02 </wgt>
<wgt id='105'> +5.2350196e+02 </wgt>
<wgt id='106'> +4.6463884e+02 </wgt>
<wgt id='107'> +4.9185809e+02 </wgt>
<wgt id='108'> +4.5080438e+02 </wgt>
<wgt id='109'> +4.7583551e+02 </wgt>
<wgt id='110'> +5.0411422e+02 </wgt>
<wgt id='111'> +4.9191058e+02 </wgt>
<wgt id='112'> +4.8006405e+02 </wgt>
<wgt id='113'> +4.6661009e+02 </wgt>
<wgt id='114'> +4.9945284e+02 </wgt>
<wgt id='115'> +4.9243018e+02 </wgt>
<wgt id='116'> +5.1109409e+02 </wgt>
<wgt id='117'> +5.0541738e+02 </wgt>
<wgt id='118'> +5.2189189e+02 </wgt>
<wgt id='119'> +4.8921044e+02 </wgt>
<wgt id='120'> +4.9644654e+02 </wgt>
<wgt id='121'> +4.9376088e+02 </wgt>
<wgt id='122'> +4.9932360e+02 </wgt>
<wgt id='123'> +5.0900832e+02 </wgt>
<wgt id='124'> +5.4609060e+02 </wgt>
<wgt id='125'> +5.4874433e+02 </wgt>
<wgt id='126'> +5.2145632e+02 </wgt>
<wgt id='127'> +5.1858286e+02 </wgt>
<wgt id='128'> +4.6417318e+02 </wgt>
<wgt id='129'> +5.6781173e+02 </wgt>
<wgt id='130'> +5.0295808e+02 </wgt>
<wgt id='131'> +5.3354988e+02 </wgt>
<wgt id='132'> +5.1393976e+02 </wgt>
<wgt id='133'> +5.0853752e+02 </wgt>
<wgt id='134'> +4.8294644e+02 </wgt>
<wgt id='135'> +5.1510128e+02 </wgt>
<wgt id='136'> +5.0105702e+02 </wgt>
<wgt id='137'> +4.7884376e+02 </wgt>
<wgt id='138'> +4.6471157e+02 </wgt>
<wgt id='139'> +5.1686836e+02 </wgt>
<wgt id='140'> +5.2856650e+02 </wgt>
<wgt id='141'> +5.0713198e+02 </wgt>
<wgt id='142'> +4.9336443e+02 </wgt>
<wgt id='143'> +5.0769610e+02 </wgt>
<wgt id='144'> +5.0126084e+02 </wgt>
<wgt id='145'> +5.0443452e+02 </wgt>
</rwgt>
</event>
<event>
 4      1 +5.0481800e+02 1.81224300e+02 7.54677100e-03 1.16662300e-01
       21 -1    0    0  501  502 +0.0000000000e+00 +0.0000000000e+00 +9.4234704234e+01 9.4234704234e+01 0.0000000000e+00 0.0000e+00 -1.0000e+00
       21 -1    0    0  502  503 -0.0000000000e+00 -0.0000000000e+00 -5.6226139081e+02 5.6226139081e+02 0.0000000000e+00 0.0000e+00 -1.0000e+00
        6  1    1    2  501    0 -3.2884034546e+01 +4.2800671205e+01 -3.1626682693e+01 1.8396332309e+02 1.7300000000e+02 0.0000e+00 -1.0000e+00
       -6  1    1    2    0  503 +3.2884034546e+01 -4.2800671205e+01 -4.3640000388e+02 4.7253277195e+02 1.7300000000e+02 0.0000e+00 -1.0000e+00
<mgrwt>
<rscale>  2 0.18122433E+03</rscale>
<asrwt>0</asrwt>
<pdfrwt beam="1">  1       21 0.14497647E-01 0.18122433E+03</pdfrwt>
<pdfrwt beam="2">  1       21 0.86501753E-01 0.18122433E+03</pdfrwt>
<totfact> 0.48312592E+04</totfact>
</mgrwt>
<rwgt>
<wgt id='1'> +6.5509543e+02 </wgt>
<wgt id='2'> +6.1150508e+02 </wgt>
<wgt id='3'> +5.0481800e+02 </wgt>
<wgt id='4'> +6.5509544e+02 </wgt>
<wgt id='5'> +4.6313125e+02 </wgt>
<wgt id='6'> +6.2121880e+02 </wgt>
<wgt id='7'> +5.7699003e+02 </wgt>
<wgt id='8'> +4.7015013e+02 </wgt>
<wgt id='9'> +6.2121880e+02 </wgt>
<wgt id='10'> +4.3106117e+02 </wgt>
<wgt id='11'> +5.7855722e+02 </wgt>
<wgt id='12'> +5.3699001e+02 </wgt>
<wgt id='13'> +4.3765463e+02 </wgt>
<wgt id='14'> +5.7855722e+02 </wgt>
<wgt id='15'> +4.0135475e+02 </wgt>
<wgt id='16'> +5.3234701e+02 </wgt>
<wgt id='17'> +5.0152532e+02 </wgt>
<wgt id='18'> +4.2424081e+02 </wgt>
<wgt id='19'> +5.3234701e+02 </wgt>
<wgt id='20'> +3.9137157e+02 </wgt>
<wgt id='21'> +4.7321784e+02 </wgt>
<wgt id='22'> +3.9510649e+02 </wgt>
<wgt id='23'> +5.0481800e+02 </wgt>
<wgt id='24'> +3.6427058e+02 </wgt>
<wgt id='25'> +4.7015013e+02 </wgt>
<wgt id='26'> +4.4041186e+02 </wgt>
<wgt id='27'> +3.6779781e+02 </wgt>
<wgt id='28'> +4.7015013e+02 </wgt>
<wgt id='29'> +3.3916700e+02 </wgt>
<wgt id='30'> +4.4737573e+02 </wgt>
<wgt id='31'> +4.2333317e+02 </wgt>
<wgt id='32'> +3.6167499e+02 </wgt>
<wgt id='33'> +4.4737573e+02 </wgt>
<wgt id='34'> +3.3508185e+02 </wgt>
<wgt id='35'> +4.2424080e+02 </wgt>
<wgt id='36'> +3.9943907e+02 </wgt>
<wgt id='37'> +3.3683732e+02 </wgt>
<wgt id='38'> +4.2424081e+02 </wgt>
<wgt id='39'> +3.1187870e+02 </wgt>
<wgt id='40'> +3.9510649e+02 </wgt>
<wgt id='41'> +3.7174783e+02 </wgt>
<wgt id='42'> +3.1355604e+02 </wgt>
<wgt id='43'> +3.9510649e+02 </wgt>
<wgt id='44'> +2.9038569e+02 </wgt>
<wgt id='45'> +5.0481800e+02 </wgt>
<wgt id='46'> +5.1217265e+02 </wgt>
<wgt id='47'> +5.2093934e+02 </wgt>
<wgt id='48'> +5.0795342e+02 </wgt>
<wgt id='49'> +4.9913136e+02 </wgt>
<wgt id='50'> +5.9661680e+02 </wgt>
<wgt id='51'> +4.9330127e+02 </wgt>
<wgt id='52'> +5.0379606e+02 </wgt>
<wgt id='53'> +5.0210828e+02 </wgt>
<wgt id='54'> +5.1106314e+02 </wgt>
<wgt id='55'> +4.6949592e+02 </wgt>
<wgt id='56'> +4.6363632e+02 </wgt>
<wgt id='57'> +5.0198855e+02 </wgt>
<wgt id='58'> +4.9919051e+02 </wgt>
<wgt id='59'> +5.1547497e+02 </wgt>
<wgt id='60'> +4.9804982e+02 </wgt>
<wgt id='61'> +4.5620238e+02 </wgt>
<wgt id='62'> +4.9621305e+02 </wgt>
<wgt id='63'> +5.0632390e+02 </wgt>
<wgt id='64'> +4.9646797e+02 </wgt>
<wgt id='65'> +5.7126117e+02 </wgt>
<wgt id='66'> +4.9488792e+02 </wgt>
<wgt id='67'> +5.0829333e+02 </wgt>
<wgt id='68'> +5.5168192e+02 </wgt>
<wgt id='69'> +4.9994653e+02 </wgt>
<wgt id='70'> +4.9779872e+02 </wgt>
<wgt id='71'> +5.1139171e+02 </wgt>
<wgt id='72'> +4.8778850e+02 </wgt>
<wgt id='73'> +4.9219093e+02 </wgt>
<wgt id='74'> +5.2928665e+02 </wgt>
<wgt id='75'> +5.1617538e+02 </wgt>
<wgt id='76'> +4.9595493e+02 </wgt>
<wgt id='77'> +4.9244203e+02 </wgt>
<wgt id='78'> +4.8980763e+02 </wgt>
<wgt id='79'> +4.9436657e+02 </wgt>
<wgt id='80'> +4.9381681e+02 </wgt>
<wgt id='81'> +4.9552620e+02 </wgt>
<wgt id='82'> +5.0403753e+02 </wgt>
<wgt id='83'> +5.1198130e+02 </wgt>
<wgt id='84'> +5.4546759e+02 </wgt>
<wgt id='85'> +5.1936550e+02 </wgt>
<wgt id='86'> +5.0534226e+02 </wgt>
<wgt id='87'> +5.0725092e+02 </wgt>
<wgt id='88'> +5.0859660e+02 </wgt>
<wgt id='89'> +5.1315071e+02 </wgt>
<wgt id='90'> +5.1356849e+02 </wgt>
<wgt id='91'> +5.2319500e+02 </wgt>
<wgt id='92'> +4.6302351e+02 </wgt>
<wgt id='93'> +5.0043142e+02 </wgt>
<wgt id='94'> +4.9480266e+02 </wgt>
<wgt id='95'> +4.9420401e+02 </wgt>
<wgt id='96'> +5.4166984e+02 </wgt>
<wgt id='97'> +5.0347272e+02 </wgt>
<wgt id='98'> +4.8990925e+02 </wgt>
<wgt id='99'> +4.8250271e+02 </wgt>
<wgt id='100'> +4.8057153e+02 </wgt>
<wgt id='101'> +5.4833646e+02 </wgt>
<wgt id='102'> +5.0966612e+02 </wgt>
<wgt id='103'> +5.4477780e+02 </wgt>
<wgt id='104'> +5.0738507e+02 </wgt>
<wgt id='105'> +5.2244410e+02 </wgt>
<wgt id='106'> +4.6248928e+02 </wgt>
<wgt id='107'> +4.8711637e+02 </wgt>
<wgt id='108'> +4.4809526e+02 </wgt>
<wgt id='109'> +4.7540308e+02 </wgt>
<wgt id='110'> +5.0219787e+02 </wgt>
<wgt id='111'> +4.9137210e+02 </wgt>
<wgt id='112'> +4.7923766e+02 </wgt>
<wgt id='113'> +4.6711979e+02 </wgt>
<wgt id='114'> +4.9733328e+02 </wgt>
<wgt id='115'> +4.8645261e+02 </wgt>
<wgt id='116'> +5.1615502e+02 </wgt>
<wgt id='117'> +5.0280364e+02 </wgt>
<wgt id='118'> +5.2527977e+02 </wgt>
<wgt id='119'> +4.9089180e+02 </wgt>
<wgt id='120'> +4.9487387e+02 </wgt>
<wgt id='121'> +4.9429333e+02 </wgt>
<wgt id='122'> +4.9925908e+02 </wgt>
<wgt id='123'> +5.0864257e+02 </wgt>
<wgt id='124'> +5.5179222e+02 </wgt>
<wgt id='125'> +5.5568926e+02 </wgt>
<wgt id='126'> +5.2109100e+02 </wgt>
<wgt id='127'> +5.1831185e+02 </wgt>
<wgt id='128'> +4.6171966e+02 </wgt>
<wgt id='129'> +5.6716796e+02 </wgt>
<wgt id='130'> +5.0175083e+02 </wgt>
<wgt id='131'> +5.3024176e+02 </wgt>
<wgt id='132'> +5.2059918e+02 </wgt>
<wgt id='133'> +5.1310845e+02 </wgt>
<wgt id='134'> +4.8617825e+02 </wgt>
<wgt id='135'> +5.1363148e+02 </wgt>
<wgt id='136'> +5.0954650e+02 </wgt>
<wgt id='137'> +4.8101704e+02 </wgt>
<wgt id='138'> +4.6884783e+02 </wgt>
<wgt id='139'> +5.1839791e+02 </wgt>
<wgt id='140'> +5.2484493e+02 </wgt>
<wgt id='141'> +5.1000538e+02 </wgt>
<wgt id='142'> +4.8481753e+02 </wgt>
<wgt id='143'> +5.1062308e+02 </wgt>
<wgt id='144'> +4.9799419e+02 </wgt>
<wgt id='145'> +5.0289330e+02 </wgt>
</rwgt>
</event>
<event>
 4      1 +5.0481800e+02 2.36596800e+02 7.54677100e-03 1.12208100e-01
       21 -1    0    0  501  502 +0.0000000000e+00 +0.0000000000e+00 +4.6334567218e+02 4.6334567218e+02 0.0000000000e+00 0.0000e+00 -1.0000e+00
       21 -1    0    0  502  503 -0.0000000000e+00 -0.0000000000e+00 -1.3725671160e+02 1.3725671160e+02 0.0000000000e+00 0.0000e+00 1.0000e+00
        6  1    1    2  501    0 -1.5902248185e+02 -2.7584002914e+01 +2.6698731777e+02 3.5673555304e+02 1.7300000000e+02 0.0000e+00 -1.0000e+00
       -6  1    1    2    0  503 +1.5902248185e+02 +2.7584002914e+01 +5.9101642807e+01 2.4386683073e+02 1.7300000000e+02 0.0000e+00 1.0000e+00
<mgrwt>
<rscale>  2 0.23659676E+03</rscale>
<asrwt>0</asrwt>
<pdfrwt beam="1">  1       21 0.71283949E-01 0.23659676E+03</pdfrwt>
<pdfrwt beam="2">  1       21 0.21116417E-01 0.23659676E+03</pdfrwt>
<totfact> 0.36307642E+04</totfact>
</mgrwt>
<rwgt>
<wgt id='1'> +6.5299075e+02 </wgt>
<wgt id='2'> +5.3004341e+02 </wgt>
<wgt id='3'> +5.0481800e+02 </wgt>
<wgt id='4'> +6.5299075e+02 </wgt>
<wgt id='5'> +4.9339234e+02 </wgt>
<wgt id='6'> +6.1260570e+02 </wgt>
<wgt id='7'> +4.9200042e+02 </wgt>
<wgt id='8'> +4.6868840e+02 </wgt>
<wgt id='9'> +6.1260570e+02 </wgt>
<wgt id='10'> +4.5809759e+02 </wgt>
<wgt id='11'> +5.6876178e+02 </wgt>
<wgt id='12'> +4.5704728e+02 </wgt>
<wgt id='13'> +4.3548123e+02 </wgt>
<wgt id='14'> +5.6876178e+02 </wgt>
<wgt id='15'> +4.2568558e+02 </wgt>
<wgt id='16'> +5.3809732e+02 </wgt>
<wgt id='17'> +4.4699712e+02 </wgt>
<wgt id='18'> +4.2683801e+02 </wgt>
<wgt id='19'> +5.3809732e+02 </wgt>
<wgt id='20'> +4.1771285e+02 </wgt>
<wgt id='21'> +4.1491465e+02 </wgt>
<wgt id='22'> +3.9628940e+02 </wgt>
<wgt id='23'> +5.0481800e+02 </wgt>
<wgt id='24'> +3.8783182e+02 </wgt>
<wgt id='25'> +4.6868840e+02 </wgt>
<wgt id='26'> +3.8543790e+02 </wgt>
<wgt id='27'> +3.6821179e+02 </wgt>
<wgt id='28'> +4.6868840e+02 </wgt>
<wgt id='29'> +3.6039136e+02 </wgt>
<wgt id='30'> +4.5497662e+02 </wgt>
<wgt id='31'> +3.8198658e+02 </wgt>
<wgt id='32'> +3.6562153e+02 </wgt>
<wgt id='33'> +4.5497662e+02 </wgt>
<wgt id='34'> +3.5819930e+02 </wgt>
<wgt id='35'> +4.2683801e+02 </wgt>
<wgt id='36'> +3.5457012e+02 </wgt>
<wgt id='37'> +3.3945416e+02 </wgt>
<wgt id='38'> +4.2683801e+02 </wgt>
<wgt id='39'> +3.3257556e+02 </wgt>
<wgt id='40'> +3.9628940e+02 </wgt>
<wgt id='41'> +3.2938043e+02 </wgt>
<wgt id='42'> +3.1540340e+02 </wgt>
<wgt id='43'> +3.9628940e+02 </wgt>
<wgt id='44'> +3.0904468e+02 </wgt>
<wgt id='45'> +5.0481800e+02 </wgt>
<wgt id='46'> +5.1116446e+02 </wgt>
<wgt id='47'> +5.2361601e+02 </wgt>
<wgt id='48'> +5.0902536e+02 </wgt>
<wgt id='49'> +5.0099186e+02 </wgt>
<wgt id='50'> +5.9999205e+02 </wgt>
<wgt id='51'> +4.9426099e+02 </wgt>
<wgt id='52'> +5.0314094e+02 </wgt>
<wgt id='53'> +5.0467312e+02 </wgt>
<wgt id='54'> +5.0947183e+02 </wgt>
<wgt id='55'> +4.6041290e+02 </wgt>
<wgt id='56'> +4.6406758e+02 </wgt>
<wgt id='57'> +4.9674924e+02 </wgt>
<wgt id='58'> +5.0074364e+02 </wgt>
<wgt id='59'> +5.0911481e+02 </wgt>
<wgt id='60'> +4.9330416e+02 </wgt>
<wgt id='61'> +4.6805151e+02 </wgt>
<wgt id='62'> +4.9768588e+02 </wgt>
<wgt id='63'> +5.0578024e+02 </wgt>
<wgt id='64'> +4.9580757e+02 </wgt>
<wgt id='65'> +5.8277648e+02 </wgt>
<wgt id='66'> +4.9476132e+02 </wgt>
<wgt id='67'> +5.0882094e+02 </wgt>
<wgt id='68'> +5.4947396e+02 </wgt>
<wgt id='69'> +5.0024883e+02 </wgt>
<wgt id='70'> +4.9679763e+02 </wgt>
<wgt id='71'> +5.1264816e+02 </wgt>
<wgt id='72'> +4.8423113e+02 </wgt>
<wgt id='73'> +4.9359648e+02 </wgt>
<wgt id='74'> +5.2746368e+02 </wgt>
<wgt id='75'> +5.1705542e+02 </wgt>
<wgt id='76'> +4.9255721e+02 </wgt>
<wgt id='77'> +4.9095871e+02 </wgt>
<wgt id='78'> +4.9439567e+02 </wgt>
<wgt id='79'> +4.9116787e+02 </wgt>
<wgt id='80'> +4.9593181e+02 </wgt>
<wgt id='81'> +4.9462281e+02 </wgt>
<wgt id='82'> +5.0942316e+02 </wgt>
<wgt id='83'> +5.1521021e+02 </wgt>
<wgt id='84'> +5.5132094e+02 </wgt>
<wgt id='85'> +5.2479197e+02 </wgt>
<wgt id='86'> +5.0531037e+02 </wgt>
<wgt id='87'> +5.0688002e+02 </wgt>
<wgt id='88'> +5.1207931e+02 </wgt>
<wgt id='89'> +5.1551334e+02 </wgt>
<wgt id='90'> +5.1269154e+02 </wgt>
<wgt id='91'> +5.2899086e+02 </wgt>
<wgt id='92'> +4.5919454e+02 </wgt>
<wgt id='93'> +4.9981833e+02 </wgt>
<wgt id='94'> +4.9641169e+02 </wgt>
<wgt id='95'> +4.8824557e+02 </wgt>
<wgt id='96'> +5.4684490e+02 </wgt>
<wgt id='97'> +5.0632422e+02 </wgt>
<wgt id='98'> +4.8681936e+02 </wgt>
<wgt id='99'> +4.8487905e+02 </wgt>
<wgt id='100'> +4.8577644e+02 </wgt>
<wgt id='101'> +5.4452257e+02 </wgt>
<wgt id='102'> +5.0490526e+02 </wgt>
<wgt id='103'> +5.4794236e+02 </wgt>
<wgt id='104'> +5.0757851e+02 </wgt>
<wgt id='105'> +5.2145820e+02 </wgt>
<wgt id='106'> +4.5956958e+02 </wgt>
<wgt id='107'> +4.8837039e+02 </wgt>
<wgt id='108'> +4.4666259e+02 </wgt>
<wgt id='109'> +4.7239886e+02 </wgt>
<wgt id='110'> +5.0259568e+02 </wgt>
<wgt id='111'> +4.9015475e+02 </wgt>
<wgt id='112'> +4.7827640e+02 </wgt>
<wgt id='113'> +4.6373503e+02 </wgt>
<wgt id='114'> +4.9617091e+02 </wgt>
<wgt id='115'> +4.9211761e+02 </wgt>
<wgt id='116'> +5.1448468e+02 </wgt>
<wgt id='117'> +5.0569129e+02 </wgt>
<wgt id='118'> +5.2481581e+02 </wgt>
<wgt id='119'> +4.8689775e+02 </wgt>
<wgt id='120'> +4.9640365e+02 </wgt>
<wgt id='121'> +4.9086791e+02 </wgt>
<wgt id='122'> +4.9838706e+02 </wgt>
<wgt id='123'> +5.1110940e+02 </wgt>
<wgt id='124'> +5.4969840e+02 </wgt>
<wgt id='125'> +5.5198690e+02 </wgt>
<wgt id='126'> +5.2419663e+02 </wgt>
<wgt id='127'> +5.2008228e+02 </wgt>
<wgt id='128'> +4.6358607e+02 </wgt>
<wgt id='129'> +5.6989781e+02 </wgt>
<wgt id='130'> +5.0602755e+02 </wgt>
<wgt id='131'> +5.3453599e+02 </wgt>
<wgt id='132'> +5.1263316e+02 </wgt>
<wgt id='133'> +5.1021522e+02 </wgt>
<wgt id='134'> +4.8148399e+02 </wgt>
<wgt id='135'> +5.1528185e+02 </wgt>
<wgt id='136'> +4.9910373e+02 </wgt>
<wgt id='137'> +4.8012121e+02 </wgt>
<wgt id='138'> +4.6841467e+02 </wgt>
<wgt id='139'> +5.1760036e+02 </wgt>
<wgt id='140'> +5.2863225e+02 </wgt>
<wgt id='141'> +5.0833014e+02 </wgt>
<wgt id='142'> +4.9182507e+02 </wgt>
<wgt id='143'> +5.0691854e+02 </wgt>
<wgt id='144'> +4.9882294e+02 </wgt>
<wgt id='145'> +5.0468271e+02 </wgt>
</rwgt>
</event>
<event>
 4      1 +5.0481800e+02 2.62417500e+02 7.54677100e-03 1.10569900e-01
       21 -1    0    0  501  502 +0.0000000000e+00 +0.0000000000e+00 +7.4820596469e+01 7.4820596469e+01 0.0000000000e+00 0.0000e+00 1.0000e+00
       21 -1    0    0  502  503 -0.0000000000e+00 -0.0000000000e+00 -9.8585110025e+02 9.8585110025e+02 0.0000000000e+00 0.0000e+00 1.0000e+00
        6  1    1    2  501    0 -9.7906552036e+01 -1.7131326310e+02 -3.1883988609e+02 4.1294285320e+02 1.7300000000e+02 0.0000e+00 1.0000e+00
       -6  1    1    2    0  503 +9.7906552036e+01 +1.7131326310e+02 -5.9219061768e+02 6.4772884351e+02 1.7300000000e+02 0.0000e+00 1.0000e+00
<mgrwt>
<rscale>  2 0.26241747E+03</rscale>
<asrwt>0</asrwt>
<pdfrwt beam="1">  1       21 0.11510861E-01 0.26241747E+03</pdfrwt>
<pdfrwt beam="2">  1       21 0.15166940E+00 0.26241747E+03</pdfrwt>
<totfact> 0.17585534E+04</totfact>
</mgrwt>
<rwgt>
<wgt id='1'> +6.6586275e+02 </wgt>
<wgt id='2'> +5.4969641e+02 </wgt>
<wgt id='3'> +5.0481800e+02 </wgt>
<wgt id='4'> +6.6586276e+02 </wgt>
<wgt id='5'> +4.9815908e+02 </wgt>
<wgt id='6'> +6.0935272e+02 </wgt>
<wgt id='7'> +4.9972814e+02 </wgt>
<wgt id='8'> +4.5927147e+02 </wgt>
<wgt id='9'> +6.0935273e+02 </wgt>
<wgt id='10'> +4.5325944e+02 </wgt>
<wgt id='11'> +5.5437469e+02 </wgt>
<wgt id='12'> +4.5534925e+02 </wgt>
<wgt id='13'> +4.1882121e+02 </wgt>
<wgt id='14'> +5.5437469e+02 </wgt>
<wgt id='15'> +4.1339231e+02 </wgt>
<wgt id='16'> +5.5163371e+02 </wgt>
<wgt id='17'> +4.6375932e+02 </wgt>
<wgt id='18'> +4.2772344e+02 </wgt>
<wgt id='19'> +5.5163371e+02 </wgt>
<wgt id='20'> +4.2236804e+02 </wgt>
<wgt id='21'> +4.2160287e+02 </wgt>
<wgt id='22'> +3.8913266e+02 </wgt>
<wgt id='23'> +5.0481800e+02 </wgt>
<wgt id='24'> +3.8429954e+02 </wgt>
<wgt id='25'> +4.5927147e+02 </wgt>
<wgt id='26'> +3.8416198e+02 </wgt>
<wgt id='27'> +3.5485987e+02 </wgt>
<wgt id='28'> +4.5927147e+02 </wgt>
<wgt id='29'> +3.5049788e+02 </wgt>
<wgt id='30'> +4.6738956e+02 </wgt>
<wgt id='31'> +3.9645503e+02 </wgt>
<wgt id='32'> +3.6703086e+02 </wgt>
<wgt id='33'> +4.6738957e+02 </wgt>
<wgt id='34'> +3.6264408e+02 </wgt>
<wgt id='35'> +4.2772344e+02 </wgt>
<wgt id='36'> +3.6041664e+02 </wgt>
<wgt id='37'> +3.3391599e+02 </wgt>
<wgt id='38'> +4.2772344e+02 </wgt>
<wgt id='39'> +3.2995857e+02 </wgt>
<wgt id='40'> +3.8913266e+02 </wgt>
<wgt id='41'> +3.2840946e+02 </wgt>
<wgt id='42'> +3.0450640e+02 </wgt>
<wgt id='43'> +3.8913266e+02 </wgt>
<wgt id='44'> +3.0093655e+02 </wgt>
<wgt id='45'> +5.0481800e+02 </wgt>
<wgt id='46'> +5.1933730e+02 </wgt>
<wgt id='47'> +5.2027495e+02 </wgt>
<wgt id='48'> +5.0630167e+02 </wgt>
<wgt id='49'> +4.7990236e+02 </wgt>
<wgt id='50'> +6.0095101e+02 </wgt>
<wgt id='51'> +4.8303537e+02 </wgt>
<wgt id='52'> +4.8976801e+02 </wgt>
<wgt id='53'> +5.0023910e+02 </wgt>
<wgt id='54'> +5.2615348e+02 </wgt>
<wgt id='55'> +5.2261215e+02 </wgt>
<wgt id='56'> +4.6965518e+02 </wgt>
<wgt id='57'> +5.2448249e+02 </wgt>
<wgt id='58'> +4.7316449e+02 </wgt>
<wgt id='59'> +5.4024389e+02 </wgt>
<wgt id='60'> +5.0609845e+02 </wgt>
<wgt id='61'> +4.4936148e+02 </wgt>
<wgt id='62'> +4.8044342e+02 </wgt>
<wgt id='63'> +5.1947641e+02 </wgt>
<wgt id='64'> +5.0023124e+02 </wgt>
<wgt id='65'> +5.1114104e+02 </wgt>
<wgt id='66'> +5.0356682e+02 </wgt>
<wgt id='67'> +5.0711746e+02 </wgt>
<wgt id='68'> +5.8337501e+02 </wgt>
<wgt id='69'> +5.2555517e+02 </wgt>
<wgt id='70'> +5.1771250e+02 </wgt>
<wgt id='71'> +4.9071487e+02 </wgt>
<wgt id='72'> +4.7468310e+02 </wgt>
<wgt id='73'> +4.7015321e+02 </wgt>
<wgt id='74'> +5.5588802e+02 </wgt>
<wgt id='75'> +5.2985786e+02 </wgt>
<wgt id='76'> +5.1047686e+02 </wgt>
<wgt id='77'> +4.8837063e+02 </wgt>
<wgt id='78'> +4.5648349e+02 </wgt>
<wgt id='79'> +5.1945492e+02 </wgt>
<wgt id='80'> +4.6918343e+02 </wgt>
<wgt id='81'> +5.0717700e+02 </wgt>
<wgt id='82'> +4.8922376e+02 </wgt>
<wgt id='83'> +5.0379640e+02 </wgt>
<wgt id='84'> +5.1776670e+02 </wgt>
<wgt id='85'> +4.8357728e+02 </wgt>
<wgt id='86'> +5.1816452e+02 </wgt>
<wgt id='87'> +5.0418596e+02 </wgt>
<wgt id='88'> +4.9879860e+02 </wgt>
<wgt id='89'> +4.7247559e+02 </wgt>
<wgt id='90'> +4.9499912e+02 </wgt>
<wgt id='91'> +4.7754146e+02 </wgt>
<wgt id='92'> +4.6607466e+02 </wgt>
<wgt id='93'> +5.0641022e+02 </wgt>
<wgt id='94'> +4.7484169e+02 </wgt>
<wgt id='95'> +5.1810693e+02 </wgt>
<wgt id='96'> +5.3300658e+02 </wgt>
<wgt id='97'> +4.7743111e+02 </wgt>
<wgt id='98'> +5.1798914e+02 </wgt>
<wgt id='99'> +4.5005530e+02 </wgt>
<wgt id='100'> +4.2446983e+02 </wgt>
<wgt id='101'> +5.7680820e+02 </wgt>
<wgt id='102'> +5.4767122e+02 </wgt>
<wgt id='103'> +5.1327065e+02 </wgt>
<wgt id='104'> +5.2571104e+02 </wgt>
<wgt id='105'> +5.1874714e+02 </wgt>
<wgt id='106'> +4.7414519e+02 </wgt>
<wgt id='107'> +4.8008900e+02 </wgt>
<wgt id='108'> +4.5823609e+02 </wgt>
<wgt id='109'> +4.8835171e+02 </wgt>
<wgt id='110'> +4.8204080e+02 </wgt>
<wgt id='111'> +4.9214422e+02 </wgt>
<wgt id='112'> +5.0253285e+02 </wgt>
<wgt id='113'> +4.9656731e+02 </wgt>
<wgt id='114'> +5.0886600e+02 </wgt>
<wgt id='115'> +4.6869870e+02 </wgt>
<wgt id='116'> +5.4059651e+02 </wgt>
<wgt id='117'> +4.9468389e+02 </wgt>
<wgt id='118'> +5.2748176e+02 </wgt>
<wgt id='119'> +5.2257019e+02 </wgt>
<wgt id='120'> +5.0147290e+02 </wgt>
<wgt id='121'> +4.9924687e+02 </wgt>
<wgt id='122'> +4.9732137e+02 </wgt>
<wgt id='123'> +4.9635196e+02 </wgt>
<wgt id='124'> +5.6771572e+02 </wgt>
<wgt id='125'> +5.9908699e+02 </wgt>
<wgt id='126'> +5.0675230e+02 </wgt>
<wgt id='127'> +5.0077254e+02 </wgt>
<wgt id='128'> +4.7127021e+02 </wgt>
<wgt id='129'> +5.4034044e+02 </wgt>
<wgt id='130'> +4.9014635e+02 </wgt>
<wgt id='131'> +4.9350713e+02 </wgt>
<wgt id='132'> +5.4618236e+02 </wgt>
<wgt id='133'> +5.3689733e+02 </wgt>
<wgt id='134'> +5.1220117e+02 </wgt>
<wgt id='135'> +4.9616126e+02 </wgt>
<wgt id='136'> +5.6357416e+02 </wgt>
<wgt id='137'> +5.0523184e+02 </wgt>
<wgt id='138'> +4.9801358e+02 </wgt>
<wgt id='139'> +5.2029785e+02 </wgt>
<wgt id='140'> +5.0295371e+02 </wgt>
<wgt id='141'> +5.4197745e+02 </wgt>
<wgt id='142'> +4.1456595e+02 </wgt>
<wgt id='143'> +5.1846671e+02 </wgt>
<wgt id='144'> +4.7516893e+02 </wgt>
<wgt id='145'> +4.8216486e+02 </wgt>
</rwgt>
</event>
<event>
 4      1 +5.0481800e+02 3.25004300e+02 7.54677100e-03 1.07336900e-01
       21 -1    0    0  503  502 +0.0000000000e+00 +0.0000000000e+00 +2.6705520550e+02 2.6705520550e+02 0.0000000000e+00 0.0000e+00 1.0000e+00
       21 -1    0    0  501  503 -0.0000000000e+00 -0.0000000000e+00 -8.2047789584e+02 8.2047789584e+02 0.0000000000e+00 0.0000e+00 -1.0000e+00
        6  1    1    2  501    0 -2.0089506547e+02 -1.8798924877e+02 -6.6804568581e+02 7.4290835459e+02 1.7300000000e+02 0.0000e+00 -1.0000e+00
       -6  1    1    2    0  502 +2.0089506547e+02 +1.8798924877e+02 +1.1462299547e+02 3.4462474675e+02 1.7300000000e+02 0.0000e+00 1.0000e+00
<mgrwt>
<rscale>  2 0.32500428E+03</rscale>
<asrwt>0</asrwt>
<pdfrwt beam="1">  1       21 0.41085417E-01 0.32500428E+03</pdfrwt>
<pdfrwt beam="2">  1       21 0.12622737E+00 0.32500428E+03</pdfrwt>
<totfact> 0.24217217E+03</totfact>
</mgrwt>
<rwgt>
<wgt id='1'> +6.8076805e+02 </wgt>
<wgt id='2'> +5.2164119e+02 </wgt>
<wgt id='3'> +5.0481800e+02 </wgt>
<wgt id='4'> +6.8076804e+02 </wgt>
<wgt id='5'> +4.3470855e+02 </wgt>
<wgt id='6'> +6.0303063e+02 </wgt>
<wgt id='7'> +4.6322162e+02 </wgt>
<wgt id='8'> +4.4853959e+02 </wgt>
<wgt id='9'> +6.0303063e+02 </wgt>
<wgt id='10'> +3.8728060e+02 </wgt>
<wgt id='11'> +5.3580323e+02 </wgt>
<wgt id='12'> +4.1343671e+02 </wgt>
<wgt id='13'> +4.0055992e+02 </wgt>
<wgt id='14'> +5.3580322e+02 </wgt>
<wgt id='15'> +3.4676247e+02 </wgt>
<wgt id='16'> +5.6989470e+02 </wgt>
<wgt id='17'> +4.4314923e+02 </wgt>
<wgt id='18'> +4.2949492e+02 </wgt>
<wgt id='19'> +5.6989470e+02 </wgt>
<wgt id='20'> +3.7229337e+02 </wgt>
<wgt id='21'> +3.9352013e+02 </wgt>
<wgt id='22'> +3.8161372e+02 </wgt>
<wgt id='23'> +5.0481800e+02 </wgt>
<wgt id='24'> +3.3167510e+02 </wgt>
<wgt id='25'> +4.4853959e+02 </wgt>
<wgt id='26'> +3.5122641e+02 </wgt>
<wgt id='27'> +3.4079302e+02 </wgt>
<wgt id='28'> +4.4853959e+02 </wgt>
<wgt id='29'> +2.9697454e+02 </wgt>
<wgt id='30'> +4.8486163e+02 </wgt>
<wgt id='31'> +3.8112746e+02 </wgt>
<wgt id='32'> +3.6985418e+02 </wgt>
<wgt id='33'> +4.8486163e+02 </wgt>
<wgt id='34'> +3.2241631e+02 </wgt>
<wgt id='35'> +4.2949492e+02 </wgt>
<wgt id='36'> +3.3844429e+02 </wgt>
<wgt id='37'> +3.2862188e+02 </wgt>
<wgt id='38'> +4.2949492e+02 </wgt>
<wgt id='39'> +2.8723977e+02 </wgt>
<wgt id='40'> +3.8161372e+02 </wgt>
<wgt id='41'> +3.0206987e+02 </wgt>
<wgt id='42'> +2.9346965e+02 </wgt>
<wgt id='43'> +3.8161372e+02 </wgt>
<wgt id='44'> +2.5718813e+02 </wgt>
<wgt id='45'> +5.0481800e+02 </wgt>
<wgt id='46'> +5.2756654e+02 </wgt>
<wgt id='47'> +5.2893174e+02 </wgt>
<wgt id='48'> +5.1440812e+02 </wgt>
<wgt id='49'> +4.8702867e+02 </wgt>
<wgt id='50'> +6.3799027e+02 </wgt>
<wgt id='51'> +4.8723413e+02 </wgt>
<wgt id='52'> +4.9762077e+02 </wgt>
<wgt id='53'> +4.9391134e+02 </wgt>
<wgt id='54'> +5.2047291e+02 </wgt>
<wgt id='55'> +4.9293363e+02 </wgt>
<wgt id='56'> +4.5339899e+02 </wgt>
<wgt id='57'> +5.1328701e+02 </wgt>
<wgt id='58'> +4.7309647e+02 </wgt>
<wgt id='59'> +5.4023722e+02 </wgt>
<wgt id='60'> +5.1019909e+02 </wgt>
<wgt id='61'> +4.2683166e+02 </wgt>
<wgt id='62'> +4.8932148e+02 </wgt>
<wgt id='63'> +5.1344460e+02 </wgt>
<wgt id='64'> +4.8888905e+02 </wgt>
<wgt id='65'> +5.4299477e+02 </wgt>
<wgt id='66'> +5.0210935e+02 </wgt>
<wgt id='67'> +5.0743592e+02 </wgt>
<wgt id='68'> +5.8417347e+02 </wgt>
<wgt id='69'> +5.3032677e+02 </wgt>
<wgt id='70'> +5.0570778e+02 </wgt>
<wgt id='71'> +4.9954325e+02 </wgt>
<wgt id='72'> +4.5896724e+02 </wgt>
<wgt id='73'> +4.7295445e+02 </wgt>
<wgt id='74'> +5.5743649e+02 </wgt>
<wgt id='75'> +5.2759940e+02 </wgt>
<wgt id='76'> +5.0014818e+02 </wgt>
<wgt id='77'> +4.9569291e+02 </wgt>
<wgt id='78'> +4.5960367e+02 </wgt>
<wgt id='79'> +5.1392958e+02 </wgt>
<wgt id='80'> +4.7555779e+02 </wgt>
<wgt id='81'> +4.9657418e+02 </wgt>
<wgt id='82'> +4.8845534e+02 </wgt>
<wgt id='83'> +5.1503120e+02 </wgt>
<wgt id='84'> +5.3955835e+02 </wgt>
<wgt id='85'> +5.0045865e+02 </wgt>
<wgt id='86'> +5.2021069e+02 </wgt>
<wgt id='87'> +5.0940246e+02 </wgt>
<wgt id='88'> +5.0846050e+02 </wgt>
<wgt id='89'> +4.9511265e+02 </wgt>
<wgt id='90'> +5.0665477e+02 </wgt>
<wgt id='91'> +4.9585789e+02 </wgt>
<wgt id='92'> +4.4132837e+02 </wgt>
<wgt id='93'> +5.0970593e+02 </wgt>
<wgt id='94'> +4.7453838e+02 </wgt>
<wgt id='95'> +5.0133957e+02 </wgt>
<wgt id='96'> +5.5396699e+02 </wgt>
<wgt id='97'> +4.8267583e+02 </wgt>
<wgt id='98'> +5.0772611e+02 </wgt>
<wgt id='99'> +4.5815707e+02 </wgt>
<wgt id='100'> +4.3034405e+02 </wgt>
<wgt id='101'> +5.9017852e+02 </wgt>
<wgt id='102'> +5.5179311e+02 </wgt>
<wgt id='103'> +5.3750246e+02 </wgt>
<wgt id='104'> +5.2572658e+02 </wgt>
<wgt id='105'> +5.1272054e+02 </wgt>
<wgt id='106'> +4.4845898e+02 </wgt>
<wgt id='107'> +4.6404070e+02 </wgt>
<wgt id='108'> +4.3449537e+02 </wgt>
<wgt id='109'> +4.7027760e+02 </wgt>
<wgt id='110'> +4.8599796e+02 </wgt>
<wgt id='111'> +4.8513354e+02 </wgt>
<wgt id='112'> +4.8142961e+02 </wgt>
<wgt id='113'> +4.7224704e+02 </wgt>
<wgt id='114'> +4.8628112e+02 </wgt>
<wgt id='115'> +4.6165840e+02 </wgt>
<wgt id='116'> +5.4871208e+02 </wgt>
<wgt id='117'> +4.9283831e+02 </wgt>
<wgt id='118'> +5.4283535e+02 </wgt>
<wgt id='119'> +5.0115237e+02 </wgt>
<wgt id='120'> +4.9083930e+02 </wgt>
<wgt id='121'> +4.9031098e+02 </wgt>
<wgt id='122'> +4.9552079e+02 </wgt>
<wgt id='123'> +5.0767410e+02 </wgt>
<wgt id='124'> +5.8287913e+02 </wgt>
<wgt id='125'> +6.0037858e+02 </wgt>
<wgt id='126'> +5.2132876e+02 </wgt>
<wgt id='127'> +5.1465555e+02 </wgt>
<wgt id='128'> +4.5728579e+02 </wgt>
<wgt id='129'> +5.6003723e+02 </wgt>
<wgt id='130'> +5.0091531e+02 </wgt>
<wgt id='131'> +5.0974363e+02 </wgt>
<wgt id='132'> +5.4531558e+02 </wgt>
<wgt id='133'> +5.3923299e+02 </wgt>
<wgt id='134'> +5.0139153e+02 </wgt>
<wgt id='135'> +5.0380304e+02 </wgt>
<wgt id='136'> +5.4796755e+02 </wgt>
<wgt id='137'> +4.9955184e+02 </wgt>
<wgt id='138'> +5.0119189e+02 </wgt>
<wgt id='139'> +5.2566426e+02 </wgt>
<wgt id='140'> +5.0670838e+02 </wgt>
<wgt id='141'> +5.3285270e+02 </wgt>
<wgt id='142'> +4.3285127e+02 </wgt>
<wgt id='143'> +5.2008517e+02 </wgt>
<wgt id='144'> +4.7535669e+02 </wgt>
<wgt id='145'> +4.9142189e+02 </wgt>
</rwgt>
</event>
<event>
 4      1 +5.0481800e+02 1.83944900e+02 7.54677100e-03 1.16403900e-01
       21 -1    0    0  503  502 +0.0000000000e+00 +0.0000000000e+00 +1.4733398103e+02 1.4733398103e+02 0.0000000000e+00 0.0000e+00 -1.0000e+00
       21 -1    0    0  501  503 -0.0000000000e+00 -0.0000000000e+00 -3.5037866686e+02 3.5037866686e+02 0.0000000000e+00 0.0000e+00 -1.0000e+00
        6  1    1    2  501    0 -5.2890962659e+01 -3.3305623926e+01 -2.4759849529e+02 3.0844891536e+02 1.7300000000e+02 0.0000e+00 -1.0000e+00
       -6  1    1    2    0  502 +5.2890962659e+01 +3.3305623926e+01 +4.4553809460e+01 1.8926373254e+02 1.7300000000e+02 0.0000e+00 -1.0000e+00
<mgrwt>
<rscale>  2 0.18394488E+03</rscale>
<asrwt>0</asrwt>
<pdfrwt beam="1">  1       21 0.22666767E-01 0.18394488E+03</pdfrwt>
<pdfrwt beam="2">  1       21 0.53904409E-01 0.18394488E+03</pdfrwt>
<totfact> 0.59612553E+04</totfact>
</mgrwt>
<rwgt>
<wgt id='1'> +6.5094293e+02 </wgt>
<wgt id='2'> +5.9901906e+02 </wgt>
<wgt id='3'> +5.0481800e+02 </wgt>
<wgt id='4'> +6.5094293e+02 </wgt>
<wgt id='5'> +4.6864011e+02 </wgt>
<wgt id='6'> +6.2079402e+02 </wgt>
<wgt id='7'> +5.6750736e+02 </wgt>
<wgt id='8'> +4.7273953e+02 </wgt>
<wgt id='9'> +6.2079402e+02 </wgt>
<wgt id='10'> +4.3860474e+02 </wgt>
<wgt id='11'> +5.8134590e+02 </wgt>
<wgt id='12'> +5.3113759e+02 </wgt>
<wgt id='13'> +4.4240716e+02 </wgt>
<wgt id='14'> +5.8134590e+02 </wgt>
<wgt id='15'> +4.1050024e+02 </wgt>
<wgt id='16'> +5.2933453e+02 </wgt>
<wgt id='17'> +4.9284735e+02 </wgt>
<wgt id='18'> +4.2443603e+02 </wgt>
<wgt id='19'> +5.2933453e+02 </wgt>
<wgt id='20'> +3.9592609e+02 </wgt>
<wgt id='21'> +4.6692087e+02 </wgt>
<wgt id='22'> +3.9746540e+02 </wgt>
<wgt id='23'> +5.0481800e+02 </wgt>
<wgt id='24'> +3.7055099e+02 </wgt>
<wgt id='25'> +4.7273953e+02 </wgt>
<wgt id='26'> +4.3699737e+02 </wgt>
<wgt id='27'> +3.7196284e+02 </wgt>
<wgt id='28'> +4.7273953e+02 </wgt>
<wgt id='29'> +3.4680718e+02 </wgt>
<wgt id='30'> +4.4504880e+02 </wgt>
<wgt id='31'> +4.1646288e+02 </wgt>
<wgt id='32'> +3.6193977e+02 </wgt>
<wgt id='33'> +4.4504880e+02 </wgt>
<wgt id='34'> +3.3890457e+02 </wgt>
<wgt id='35'> +4.2443603e+02 </wgt>
<wgt id='36'> +3.9455464e+02 </wgt>
<wgt id='37'> +3.3894044e+02 </wgt>
<wgt id='38'> +4.2443603e+02 </wgt>
<wgt id='39'> +3.1718401e+02 </wgt>
<wgt id='40'> +3.9746540e+02 </wgt>
<wgt id='41'> +3.6926886e+02 </wgt>
<wgt id='42'> +3.1719301e+02 </wgt>
<wgt id='43'> +3.9746540e+02 </wgt>
<wgt id='44'> +2.9685979e+02 </wgt>
<wgt id='45'> +5.0481800e+02 </wgt>
<wgt id='46'> +5.0590262e+02 </wgt>
<wgt id='47'> +5.2282675e+02 </wgt>
<wgt id='48'> +5.0670157e+02 </wgt>
<wgt id='49'> +5.0356615e+02 </wgt>
<wgt id='50'> +5.9121850e+02 </wgt>
<wgt id='51'> +4.9501657e+02 </wgt>
<wgt id='52'> +5.0251837e+02 </wgt>
<wgt id='53'> +5.0953660e+02 </wgt>
<wgt id='54'> +5.0780697e+02 </wgt>
<wgt id='55'> +4.5217981e+02 </wgt>
<wgt id='56'> +4.6833786e+02 </wgt>
<wgt id='57'> +4.9211309e+02 </wgt>
<wgt id='58'> +5.0735162e+02 </wgt>
<wgt id='59'> +4.9944158e+02 </wgt>
<wgt id='60'> +4.8592984e+02 </wgt>
<wgt id='61'> +4.8817404e+02 </wgt>
<wgt id='62'> +4.9825084e+02 </wgt>
<wgt id='63'> +5.0516872e+02 </wgt>
<wgt id='64'> +4.9919023e+02 </wgt>
<wgt id='65'> +5.9390971e+02 </wgt>
<wgt id='66'> +4.9287156e+02 </wgt>
<wgt id='67'> +5.0927402e+02 </wgt>
<wgt id='68'> +5.4210739e+02 </wgt>
<wgt id='69'> +4.9312951e+02 </wgt>
<wgt id='70'> +4.9621423e+02 </wgt>
<wgt id='71'> +5.1439658e+02 </wgt>
<wgt id='72'> +4.8995829e+02 </wgt>
<wgt id='73'> +4.9770950e+02 </wgt>
<wgt id='74'> +5.2097065e+02 </wgt>
<wgt id='75'> +5.1594970e+02 </wgt>
<wgt id='76'> +4.9033584e+02 </wgt>
<wgt id='77'> +4.8716515e+02 </wgt>
<wgt id='78'> +5.0351241e+02 </wgt>
<wgt id='79'> +4.8505303e+02 </wgt>
<wgt id='80'> +4.9993739e+02 </wgt>
<wgt id='81'> +4.9517107e+02 </wgt>
<wgt id='82'> +5.1715080e+02 </wgt>
<wgt id='83'> +5.1522297e+02 </wgt>
<wgt id='84'> +5.5424419e+02 </wgt>
<wgt id='85'> +5.3063372e+02 </wgt>
<wgt id='86'> +5.0193352e+02 </wgt>
<wgt id='87'> +5.0526296e+02 </wgt>
<wgt id='88'> +5.1321849e+02 </wgt>
<wgt id='89'> +5.1725999e+02 </wgt>
<wgt id='90'> +5.1128650e+02 </wgt>
<wgt id='91'> +5.3631557e+02 </wgt>
<wgt id='92'> +4.6349037e+02 </wgt>
<wgt id='93'> +4.9666936e+02 </wgt>
<wgt id='94'> +5.0143056e+02 </wgt>
<wgt id='95'> +4.8465953e+02 </wgt>
<wgt id='96'> +5.4589336e+02 </wgt>
<wgt id='97'> +5.1185569e+02 </wgt>
<wgt id='98'> +4.8202884e+02 </wgt>
<wgt id='99'> +4.8963466e+02 </wgt>
<wgt id='100'> +4.9897787e+02 </wgt>
<wgt id='101'> +5.3258368e+02 </wgt>
<wgt id='102'> +4.9222151e+02 </wgt>
<wgt id='103'> +5.4889197e+02 </wgt>
<wgt id='104'> +5.0417685e+02 </wgt>
<wgt id='105'> +5.2444905e+02 </wgt>
<wgt id='106'> +4.6323505e+02 </wgt>
<wgt id='107'> +4.9691195e+02 </wgt>
<wgt id='108'> +4.5087434e+02 </wgt>
<wgt id='109'> +4.7365300e+02 </wgt>
<wgt id='110'> +5.0560688e+02 </wgt>
<wgt id='111'> +4.9127883e+02 </wgt>
<wgt id='112'> +4.8059477e+02 </wgt>
<wgt id='113'> +4.6296743e+02 </wgt>
<wgt id='114'> +5.0206535e+02 </wgt>
<wgt id='115'> +5.0299815e+02 </wgt>
<wgt id='116'> +5.0571177e+02 </wgt>
<wgt id='117'> +5.1047037e+02 </wgt>
<wgt id='118'> +5.1875785e+02 </wgt>
<wgt id='119'> +4.8514290e+02 </wgt>
<wgt id='120'> +5.0096327e+02 </wgt>
<wgt id='121'> +4.9069259e+02 </wgt>
<wgt id='122'> +4.9826729e+02 </wgt>
<wgt id='123'> +5.1123374e+02 </wgt>
<wgt id='124'> +5.4081172e+02 </wgt>
<wgt id='125'> +5.4193345e+02 </wgt>
<wgt id='126'> +5.2431137e+02 </wgt>
<wgt id='127'> +5.2009817e+02 </wgt>
<wgt id='128'> +4.6725280e+02 </wgt>
<wgt id='129'> +5.7209163e+02 </wgt>
<wgt id='130'> +5.0819080e+02 </wgt>
<wgt id='131'> +5.4031493e+02 </wgt>
<wgt id='132'> +5.0172320e+02 </wgt>
<wgt id='133'> +5.0256666e+02 </wgt>
<wgt id='134'> +4.7560215e+02 </wgt>
<wgt id='135'> +5.1773552e+02 </wgt>
<wgt id='136'> +4.8617544e+02 </wgt>
<wgt id='137'> +4.7557804e+02 </wgt>
<wgt id='138'> +4.5965662e+02 </wgt>
<wgt id='139'> +5.1519126e+02 </wgt>
<wgt id='140'> +5.3566520e+02 </wgt>
<wgt id='141'> +5.0431319e+02 </wgt>
<wgt id='142'> +5.0624518e+02 </wgt>
<wgt id='143'> +5.0158315e+02 </wgt>
<wgt id='144'> +5.0387658e+02 </wgt>
<wgt id='145'> +5.0600871e+02 </wgt>
</rwgt>
</event>
<event>
 4      1 +5.0481800e+02 1.90344600e+02 7.54677100e-03 1.15815100e-01
       21 -1    0    0  501  502 +0.0000000000e+00 +0.0000000000e+00 +1.3439368904e+02 1.3439368904e+02 0.0000000000e+00 0.0000e+00 1.0000e+00
       21 -1    0    0  502  503 -0.0000000000e+00 -0.0000000000e+00 -2.9883379522e+02 2.9883379522e+02 0.0000000000e+00 0.0000e+00 -1.0000e+00
        6  1    1    2  501    0 -6.7259751893e+01 -4.2168804743e+01 -1.4456803875e+01 1.9089285345e+02 1.7300000000e+02 0.0000e+00 1.0000e+00
       -6  1    1    2    0  503 +6.7259751893e+01 +4.2168804743e+01 -1.4998330230e+02 2.4233463081e+02 1.7300000000e+02 0.0000e+00 1.0000e+00
<mgrwt>
<rscale>  2 0.19034464E+03</rscale>
<asrwt>0</asrwt>
<pdfrwt beam="1">  1       21 0.20675953E-01 0.19034464E+03</pdfrwt>
<pdfrwt beam="2">  1       21 0.45974429E-01 0.19034464E+03</pdfrwt>
<totfact> 0.98446407E+04</totfact>
</mgrwt>
<rwgt>
<wgt id='1'> +6.4449416e+02 </wgt>
<wgt id='2'> +5.4734556e+02 </wgt>
<wgt id='3'> +5.0481800e+02 </wgt>
<wgt id='4'> +6.4449416e+02 </wgt>
<wgt id='5'> +4.9602666e+02 </wgt>
<wgt id='6'> +6.1982925e+02 </wgt>
<wgt id='7'> +5.1879718e+02 </wgt>
<wgt id='8'> +4.7647148e+02 </wgt>
<wgt id='9'> +6.1982925e+02 </wgt>
<wgt id='10'> +4.6800390e+02 </wgt>
<wgt id='11'> +5.8502463e+02 </wgt>
<wgt id='12'> +4.8920331e+02 </wgt>
<wgt id='13'> +4.4918486e+02 </wgt>
<wgt id='14'> +5.8502463e+02 </wgt>
<wgt id='15'> +4.4118559e+02 </wgt>
<wgt id='16'> +5.2490626e+02 </wgt>
<wgt id='17'> +4.5664296e+02 </wgt>
<wgt id='18'> +4.2486310e+02 </wgt>
<wgt id='19'> +5.2490626e+02 </wgt>
<wgt id='20'> +4.1802565e+02 </wgt>
<wgt id='21'> +4.3282543e+02 </wgt>
<wgt id='22'> +4.0100620e+02 </wgt>
<wgt id='23'> +5.0481800e+02 </wgt>
<wgt id='24'> +3.9440952e+02 </wgt>
<wgt id='25'> +4.7647148e+02 </wgt>
<wgt id='26'> +4.0813566e+02 </wgt>
<wgt id='27'> +3.7804133e+02 </wgt>
<wgt id='28'> +4.7647148e+02 </wgt>
<wgt id='29'> +3.7180844e+02 </wgt>
<wgt id='30'> +4.4176970e+02 </wgt>
<wgt id='31'> +3.8794742e+02 </wgt>
<wgt id='32'> +3.6252926e+02 </wgt>
<wgt id='33'> +4.4176970e+02 </wgt>
<wgt id='34'> +3.5702739e+02 </wgt>
<wgt id='35'> +4.2486310e+02 </wgt>
<wgt id='36'> +3.6771291e+02 </wgt>
<wgt id='37'> +3.4217254e+02 </wgt>
<wgt id='38'> +4.2486310e+02 </wgt>
<wgt id='39'> +3.3685732e+02 </wgt>
<wgt id='40'> +4.0100620e+02 </wgt>
<wgt id='41'> +3.4673737e+02 </wgt>
<wgt id='42'> +3.2257696e+02 </wgt>
<wgt id='43'> +4.0100620e+02 </wgt>
<wgt id='44'> +3.1755419e+02 </wgt>
<wgt id='45'> +5.0481800e+02 </wgt>
<wgt id='46'> +5.0295704e+02 </wgt>
<wgt id='47'> +5.2112938e+02 </wgt>
<wgt id='48'> +5.0491582e+02 </wgt>
<wgt id='49'> +5.0389725e+02 </wgt>
<wgt id='50'> +5.8210081e+02 </wgt>
<wgt id='51'> +4.9516304e+02 </wgt>
<wgt id='52'> +5.0165155e+02 </wgt>
<wgt id='53'> +5.1202624e+02 </wgt>
<wgt id='54'> +5.0766050e+02 </wgt>
<wgt id='55'> +4.5282739e+02 </wgt>
<wgt id='56'> +4.7225745e+02 </wgt>
<wgt id='57'> +4.9189607e+02 </wgt>
<wgt id='58'> +5.1014120e+02 </wgt>
<wgt id='59'> +4.9586183e+02 </wgt>
<wgt id='60'> +4.8300881e+02 </wgt>
<wgt id='61'> +4.9535115e+02 </wgt>
<wgt id='62'> +4.9784475e+02 </wgt>
<wgt id='63'> +5.0523758e+02 </wgt>
<wgt id='64'> +5.0198023e+02 </wgt>
<wgt id='65'> +5.9367345e+02 </wgt>
<wgt id='66'> +4.9254233e+02 </wgt>
<wgt id='67'> +5.0933408e+02 </wgt>
<wgt id='68'> +5.3801095e+02 </wgt>
<wgt id='69'> +4.8981410e+02 </wgt>
<wgt id='70'> +4.9700079e+02 </wgt>
<wgt id='71'> +5.1446043e+02 </wgt>
<wgt id='72'> +4.9504923e+02 </wgt>
<wgt id='73'> +4.9929464e+02 </wgt>
<wgt id='74'> +5.1746532e+02 </wgt>
<wgt id='75'> +5.1512734e+02 </wgt>
<wgt id='76'> +4.9105243e+02 </wgt>
<wgt id='77'> +4.8544978e+02 </wgt>
<wgt id='78'> +5.0719200e+02 </wgt>
<wgt id='79'> +4.8337470e+02 </wgt>
<wgt id='80'> +5.0135970e+02 </wgt>
<wgt id='81'> +4.9652517e+02 </wgt>
<wgt id='82'> +5.1921511e+02 </wgt>
<wgt id='83'> +5.1376311e+02 </wgt>
<wgt id='84'> +5.5231628e+02 </wgt>
<wgt id='85'> +5.3058742e+02 </wgt>
<wgt id='86'> +5.0019046e+02 </wgt>
<wgt id='87'> +5.0411731e+02 </wgt>
<wgt id='88'> +5.1251984e+02 </wgt>
<wgt id='89'> +5.1565169e+02 </wgt>
<wgt id='90'> +5.0988994e+02 </wgt>
<wgt id='91'> +5.3716407e+02 </wgt>
<wgt id='92'> +4.6916363e+02 </wgt>
<wgt id='93'> +4.9510165e+02 </wgt>
<wgt id='94'> +5.0372508e+02 </wgt>
<wgt id='95'> +4.8572819e+02 </wgt>
<wgt id='96'> +5.4183977e+02 </wgt>
<wgt id='97'> +5.1370771e+02 </wgt>
<wgt id='98'> +4.8150476e+02 </wgt>
<wgt id='99'> +4.9118867e+02 </wgt>
<wgt id='100'> +5.0447432e+02 </wgt>
<wgt id='101'> +5.2588284e+02 </wgt>
<wgt id='102'> +4.8703521e+02 </wgt>
<wgt id='103'> +5.4582717e+02 </wgt>
<wgt id='104'> +5.0269613e+02 </wgt>
<wgt id='105'> +5.2614769e+02 </wgt>
<wgt id='106'> +4.6849432e+02 </wgt>
<wgt id='107'> +5.0216886e+02 </wgt>
<wgt id='108'> +4.5639630e+02 </wgt>
<wgt id='109'> +4.7684262e+02 </wgt>
<wgt id='110'> +5.0657142e+02 </wgt>
<wgt id='111'> +4.9310061e+02 </wgt>
<wgt id='112'> +4.8385250e+02 </wgt>
<wgt id='113'> +4.6574350e+02 </wgt>
<wgt id='114'> +5.0698277e+02 </wgt>
<wgt id='115'> +5.0878270e+02 </wgt>
<wgt id='116'> +5.0120974e+02 </wgt>
<wgt id='117'> +5.1247692e+02 </wgt>
<wgt id='118'> +5.1453748e+02 </wgt>
<wgt id='119'> +4.8668171e+02 </wgt>
<wgt id='120'> +5.0453508e+02 </wgt>
<wgt id='121'> +4.9210354e+02 </wgt>
<wgt id='122'> +4.9883822e+02 </wgt>
<wgt id='123'> +5.1022019e+02 </wgt>
<wgt id='124'> +5.3500223e+02 </wgt>
<wgt id='125'> +5.3659656e+02 </wgt>
<wgt id='126'> +5.2245974e+02 </wgt>
<wgt id='127'> +5.1840699e+02 </wgt>
<wgt id='128'> +4.7079311e+02 </wgt>
<wgt id='129'> +5.6961619e+02 </wgt>
<wgt id='130'> +5.0769053e+02 </wgt>
<wgt id='131'> +5.4031170e+02 </wgt>
<wgt id='132'> +4.9786340e+02 </wgt>
<wgt id='133'> +4.9918865e+02 </wgt>
<wgt id='134'> +4.7503384e+02 </wgt>
<wgt id='135'> +5.1762420e+02 </wgt>
<wgt id='136'> +4.8307903e+02 </wgt>
<wgt id='137'> +4.7475459e+02 </wgt>
<wgt id='138'> +4.5672086e+02 </wgt>
<wgt id='139'> +5.1325309e+02 </wgt>
<wgt id='140'> +5.3740333e+02 </wgt>
<wgt id='141'> +5.0327245e+02 </wgt>
<wgt id='142'> +5.1085123e+02 </wgt>
<wgt id='143'> +4.9961297e+02 </wgt>
<wgt id='144'> +5.0621143e+02 </wgt>
<wgt id='145'> +5.0591957e+02 </wgt>
</rwgt>
</event>
<event>
 4      1 +5.0481800e+02 1.98023100e+02 7.54677100e-03 1.15141800e-01
        2 -1    0    0  502    0 +0.0000000000e+00 +0.0000000000e+00 +5.8390593079e+02 5.8390593079e+02 0.0000000000e+00 0.0000e+00 -1.0000e+00
       -2 -1    0    0    0  501 -0.0000000000e+00 -0.0000000000e+00 -6.8194738010e+01 6.8194738010e+01 0.0000000000e+00 0.0000e+00 1.0000e+00
        6  1    1    2  502    0 -9.2721609564e+01 -2.6207882396e+01 +2.1762725517e+02 2.9423591245e+02 1.7300000000e+02 0.0000e+00 1.0000e+00
       -6  1    1    2    0  501 +9.2721609564e+01 +2.6207882396e+01 +2.9808393760e+02 3.5786475635e+02 1.7300000000e+02 0.0000e+00 -1.0000e+00
<mgrwt>
<rscale>  2 0.19802310E+03</rscale>
<asrwt>0</asrwt>
<pdfrwt beam="1">  1        2 0.89831678E-01 0.19802310E+03</pdfrwt>
<pdfrwt beam="2">  1       -2 0.10491499E-01 0.19802310E+03</pdfrwt>
<totfact> 0.31613927E+03</totfact>
</mgrwt>
<rwgt>
<wgt id='1'> +6.0296398e+02 </wgt>
<wgt id='2'> +5.7976009e+02 </wgt>
<wgt id='3'> +5.0481800e+02 </wgt>
<wgt id='4'> +6.0296398e+02 </wgt>
<wgt id='5'> +5.0392762e+02 </wgt>
<wgt id='6'> +6.1861481e+02 </wgt>
<wgt id='7'> +5.9374584e+02 </wgt>
<wgt id='8'> +5.1390658e+02 </wgt>
<wgt id='9'> +6.1861480e+02 </wgt>
<wgt id='10'> +5.1296084e+02 </wgt>
<wgt id='11'> +6.2975215e+02 </wgt>
<wgt id='12'> +6.0357531e+02 </wgt>
<wgt id='13'> +5.1997484e+02 </wgt>
<wgt id='14'> +6.2975214e+02 </wgt>
<wgt id='15'> +5.1898722e+02 </wgt>
<wgt id='16'> +4.9204621e+02 </wgt>
<wgt id='17'> +4.7695483e+02 </wgt>
<wgt id='18'> +4.2531351e+02 </wgt>
<wgt id='19'> +4.9204621e+02 </wgt>
<wgt id='20'> +4.2464168e+02 </wgt>
<wgt id='21'> +4.8846058e+02 </wgt>
<wgt id='22'> +4.3297071e+02 </wgt>
<wgt id='23'> +5.0481800e+02 </wgt>
<wgt id='24'> +4.3225365e+02 </wgt>
<wgt id='25'> +5.1390658e+02 </wgt>
<wgt id='26'> +4.9654706e+02 </wgt>
<wgt id='27'> +4.3808328e+02 </wgt>
<wgt id='28'> +5.1390658e+02 </wgt>
<wgt id='29'> +4.3733187e+02 </wgt>
<wgt id='30'> +4.1455317e+02 </wgt>
<wgt id='31'> +4.0301883e+02 </wgt>
<wgt id='32'> +3.6317346e+02 </wgt>
<wgt id='33'> +4.1455316e+02 </wgt>
<wgt id='34'> +3.6265002e+02 </wgt>
<wgt id='35'> +4.2531351e+02 </wgt>
<wgt id='36'> +4.1274100e+02 </wgt>
<wgt id='37'> +3.6971192e+02 </wgt>
<wgt id='38'> +4.2531351e+02 </wgt>
<wgt id='39'> +3.6915074e+02 </wgt>
<wgt id='40'> +4.3297071e+02 </wgt>
<wgt id='41'> +4.1957393e+02 </wgt>
<wgt id='42'> +3.7407752e+02 </wgt>
<wgt id='43'> +4.3297071e+02 </wgt>
<wgt id='44'> +3.7348761e+02 </wgt>
<wgt id='45'> +5.0481800e+02 </wgt>
<wgt id='46'> +5.0146324e+02 </wgt>
<wgt id='47'> +4.8744748e+02 </wgt>
<wgt id='48'> +4.9800573e+02 </wgt>
<wgt id='49'> +5.0170596e+02 </wgt>
<wgt id='50'> +4.6515255e+02 </wgt>
<wgt id='51'> +5.1805061e+02 </wgt>
<wgt id='52'> +4.8833682e+02 </wgt>
<wgt id='53'> +5.1786306e+02 </wgt>
<wgt id='54'> +4.9540813e+02 </wgt>
<wgt id='55'> +4.8964879e+02 </wgt>
<wgt id='56'> +5.3880183e+02 </wgt>
<wgt id='57'> +4.9931191e+02 </wgt>
<wgt id='58'> +5.1688605e+02 </wgt>
<wgt id='59'> +4.8628879e+02 </wgt>
<wgt id='60'> +5.0370670e+02 </wgt>
<wgt id='61'> +5.5636546e+02 </wgt>
<wgt id='62'> +5.2894283e+02 </wgt>
<wgt id='63'> +5.0500571e+02 </wgt>
<wgt id='64'> +5.0131617e+02 </wgt>
<wgt id='65'> +4.9718720e+02 </wgt>
<wgt id='66'> +5.3168527e+02 </wgt>
<wgt id='67'> +5.1187835e+02 </wgt>
<wgt id='68'> +4.2315946e+02 </wgt>
<wgt id='69'> +4.7503040e+02 </wgt>
<wgt id='70'> +4.8938962e+02 </wgt>
<wgt id='71'> +5.2362960e+02 </wgt>
<wgt id='72'> +5.2548111e+02 </wgt>
<wgt id='73'> +5.1455196e+02 </wgt>
<wgt id='74'> +4.5635769e+02 </wgt>
<wgt id='75'> +4.7529087e+02 </wgt>
<wgt id='76'> +5.2616708e+02 </wgt>
<wgt id='77'> +5.2365798e+02 </wgt>
<wgt id='78'> +5.3174635e+02 </wgt>
<wgt id='79'> +5.1047095e+02 </wgt>
<wgt id='80'> +5.4281005e+02 </wgt>
<wgt id='81'> +5.0303621e+02 </wgt>
<wgt id='82'> +5.0705702e+02 </wgt>
<wgt id='83'> +4.8502715e+02 </wgt>
<wgt id='84'> +5.0289460e+02 </wgt>
<wgt id='85'> +4.9986255e+02 </wgt>
<wgt id='86'> +4.9755148e+02 </wgt>
<wgt id='87'> +5.0823090e+02 </wgt>
<wgt id='88'> +5.0962465e+02 </wgt>
<wgt id='89'> +5.0296939e+02 </wgt>
<wgt id='90'> +5.4010384e+02 </wgt>
<wgt id='91'> +4.8468910e+02 </wgt>
<wgt id='92'> +5.3744292e+02 </wgt>
<wgt id='93'> +4.8803383e+02 </wgt>
<wgt id='94'> +5.0741644e+02 </wgt>
<wgt id='95'> +5.0370011e+02 </wgt>
<wgt id='96'> +4.8972392e+02 </wgt>
<wgt id='97'> +5.2277839e+02 </wgt>
<wgt id='98'> +5.1156230e+02 </wgt>
<wgt id='99'> +5.2572901e+02 </wgt>
<wgt id='100'> +5.5958500e+02 </wgt>
<wgt id='101'> +4.4304646e+02 </wgt>
<wgt id='102'> +4.6801522e+02 </wgt>
<wgt id='103'> +4.7963544e+02 </wgt>
<wgt id='104'> +4.9533286e+02 </wgt>
<wgt id='105'> +5.0044935e+02 </wgt>
<wgt id='106'> +5.3689736e+02 </wgt>
<wgt id='107'> +5.0292745e+02 </wgt>
<wgt id='108'> +5.5914067e+02 </wgt>
<wgt id='109'> +5.3101991e+02 </wgt>
<wgt id='110'> +5.2712853e+02 </wgt>
<wgt id='111'> +5.2941693e+02 </wgt>
<wgt id='112'> +5.2040446e+02 </wgt>
<wgt id='113'> +5.0925459e+02 </wgt>
<wgt id='114'> +5.1350319e+02 </wgt>
<wgt id='115'> +5.3389616e+02 </wgt>
<wgt id='116'> +4.8952268e+02 </wgt>
<wgt id='117'> +5.0439835e+02 </wgt>
<wgt id='118'> +4.7068300e+02 </wgt>
<wgt id='119'> +5.0404288e+02 </wgt>
<wgt id='120'> +5.0049790e+02 </wgt>
<wgt id='121'> +5.1139587e+02 </wgt>
<wgt id='122'> +5.1936598e+02 </wgt>
<wgt id='123'> +5.4028579e+02 </wgt>
<wgt id='124'> +4.7270948e+02 </wgt>
<wgt id='125'> +4.4210125e+02 </wgt>
<wgt id='126'> +4.9754531e+02 </wgt>
<wgt id='127'> +4.9568909e+02 </wgt>
<wgt id='128'> +5.2447985e+02 </wgt>
<wgt id='129'> +4.7035852e+02 </wgt>
<wgt id='130'> +4.9852086e+02 </wgt>
<wgt id='131'> +4.9068187e+02 </wgt>
<wgt id='132'> +4.7132695e+02 </wgt>
<wgt id='133'> +4.8779625e+02 </wgt>
<wgt id='134'> +4.9492104e+02 </wgt>
<wgt id='135'> +5.0023933e+02 </wgt>
<wgt id='136'> +4.8253113e+02 </wgt>
<wgt id='137'> +5.2628365e+02 </wgt>
<wgt id='138'> +5.1411829e+02 </wgt>
<wgt id='139'> +4.8305885e+02 </wgt>
<wgt id='140'> +4.9157753e+02 </wgt>
<wgt id='141'> +4.8123204e+02 </wgt>
<wgt id='142'> +5.6445928e+02 </wgt>
<wgt id='143'> +5.2097302e+02 </wgt>
<wgt id='144'> +5.4091504e+02 </wgt>
<wgt id='145'> +5.1672340e+02 </wgt>
</rwgt>
</event>
<event>
 4      1 +5.0481800e+02 1.76717900e+02 7.54677100e-03 1.17101800e-01
       21 -1    0    0  501  502 +0.0000000000e+00 +0.0000000000e+00 +7.2699822319e+02 7.2699822319e+02 0.0000000000e+00 0.0000e+00 1.0000e+00
       21 -1    0    0  502  503 -0.0000000000e+00 -0.0000000000e+00 -4.9121236267e+01 4.9121236267e+01 0.0000000000e+00 0.0000e+00 1.0000e+00
        6  1    1    2  501    0 -1.0305371953e+01 +3.4554555753e+01 +4.7641393267e+02 5.0813330264e+02 1.7300000000e+02 0.0000e+00 -1.0000e+00
       -6  1    1    2    0  503 +1.0305371953e+01 -3.4554555753e+01 +2.0146305425e+02 2.6798615681e+02 1.7300000000e+02 0.0000e+00 -1.0000e+00
<mgrwt>
<rscale>  2 0.17671791E+03</rscale>
<asrwt>0</asrwt>
<pdfrwt beam="1">  1       21 0.11184587E+00 0.17671791E+03</pdfrwt>
<pdfrwt beam="2">  1       21 0.75571138E-02 0.17671791E+03</pdfrwt>
<totfact> 0.83703902E+04</totfact>
</mgrwt>
<rwgt>
<wgt id='1'> +6.5092495e+02 </wgt>
<wgt id='2'> +8.6312539e+02 </wgt>
<wgt id='3'> +5.0481800e+02 </wgt>
<wgt id='4'> +6.5092496e+02 </wgt>
<wgt id='5'> +4.9295284e+02 </wgt>
<wgt id='6'> +6.2198755e+02 </wgt>
<wgt id='7'> +8.3374817e+02 </wgt>
<wgt id='8'> +4.7303098e+02 </wgt>
<wgt id='9'> +6.2198756e+02 </wgt>
<wgt id='10'> +4.6155867e+02 </wgt>
<wgt id='11'> +5.8282268e+02 </wgt>
<wgt id='12'> +7.9726090e+02 </wgt>
<wgt id='13'> +4.4250964e+02 </wgt>
<wgt id='14'> +5.8282269e+02 </wgt>
<wgt id='15'> +4.3176713e+02 </wgt>
<wgt id='16'> +5.2830420e+02 </wgt>
<wgt id='17'> +6.8211760e+02 </wgt>
<wgt id='18'> +4.2389687e+02 </wgt>
<wgt id='19'> +5.2830420e+02 </wgt>
<wgt id='20'> +4.1479127e+02 </wgt>
<wgt id='21'> +6.5890113e+02 </wgt>
<wgt id='22'> +3.9720523e+02 </wgt>
<wgt id='23'> +5.0481800e+02 </wgt>
<wgt id='24'> +3.8837489e+02 </wgt>
<wgt id='25'> +4.7303098e+02 </wgt>
<wgt id='26'> +6.3006569e+02 </wgt>
<wgt id='27'> +3.7157639e+02 </wgt>
<wgt id='28'> +4.7303098e+02 </wgt>
<wgt id='29'> +3.6330703e+02 </wgt>
<wgt id='30'> +4.4361828e+02 </wgt>
<wgt id='31'> +5.5281383e+02 </wgt>
<wgt id='32'> +3.6121499e+02 </wgt>
<wgt id='33'> +4.4361828e+02 </wgt>
<wgt id='34'> +3.5388870e+02 </wgt>
<wgt id='35'> +4.2389687e+02 </wgt>
<wgt id='36'> +5.3399833e+02 </wgt>
<wgt id='37'> +3.3847026e+02 </wgt>
<wgt id='38'> +4.2389687e+02 </wgt>
<wgt id='39'> +3.3135096e+02 </wgt>
<wgt id='40'> +3.9720523e+02 </wgt>
<wgt id='41'> +5.1062900e+02 </wgt>
<wgt id='42'> +3.1663117e+02 </wgt>
<wgt id='43'> +3.9720523e+02 </wgt>
<wgt id='44'> +3.0996374e+02 </wgt>
<wgt id='45'> +5.0481800e+02 </wgt>
<wgt id='46'> +5.1523881e+02 </wgt>
<wgt id='47'> +5.1615134e+02 </wgt>
<wgt id='48'> +5.0618300e+02 </wgt>
<wgt id='49'> +4.9380426e+02 </wgt>
<wgt id='50'> +5.8871576e+02 </wgt>
<wgt id='51'> +4.9075731e+02 </wgt>
<wgt id='52'> +5.0224987e+02 </wgt>
<wgt id='53'> +4.9747603e+02 </wgt>
<wgt id='54'> +5.1583481e+02 </wgt>
<wgt id='55'> +4.9277205e+02 </wgt>
<wgt id='56'> +4.6640404e+02 </wgt>
<wgt id='57'> +5.1275502e+02 </wgt>
<wgt id='58'> +4.9262207e+02 </wgt>
<wgt id='59'> +5.2846267e+02 </wgt>
<wgt id='60'> +5.0816987e+02 </wgt>
<wgt id='61'> +4.4272748e+02 </wgt>
<wgt id='62'> +4.9222730e+02 </wgt>
<wgt id='63'> +5.0991798e+02 </wgt>
<wgt id='64'> +4.9865320e+02 </wgt>
<wgt id='65'> +5.4024176e+02 </wgt>
<wgt id='66'> +4.9746429e+02 </wgt>
<wgt id='67'> +5.0711637e+02 </wgt>
<wgt id='68'> +5.5790753e+02 </wgt>
<wgt id='69'> +5.0438281e+02 </wgt>
<wgt id='70'> +5.0281609e+02 </wgt>
<wgt id='71'> +5.0509821e+02 </wgt>
<wgt id='72'> +4.8958952e+02 </wgt>
<wgt id='73'> +4.8690522e+02 </wgt>
<wgt id='74'> +5.3577136e+02 </wgt>
<wgt id='75'> +5.1669417e+02 </wgt>
<wgt id='76'> +5.0293430e+02 </wgt>
<wgt id='77'> +4.9508921e+02 </wgt>
<wgt id='78'> +4.7785120e+02 </wgt>
<wgt id='79'> +5.0457313e+02 </wgt>
<wgt id='80'> +4.8728346e+02 </wgt>
<wgt id='81'> +4.9900439e+02 </wgt>
<wgt id='82'> +4.9370501e+02 </wgt>
<wgt id='83'> +5.0550987e+02 </wgt>
<wgt id='84'> +5.3038662e+02 </wgt>
<wgt id='85'> +5.0538165e+02 </wgt>
<wgt id='86'> +5.0799562e+02 </wgt>
<wgt id='87'> +5.0747072e+02 </wgt>
<wgt id='88'> +5.0182577e+02 </wgt>
<wgt id='89'> +5.0297157e+02 </wgt>
<wgt id='90'> +5.1116380e+02 </wgt>
<wgt id='91'> +5.0641180e+02 </wgt>
<wgt id='92'> +4.6877847e+02 </wgt>
<wgt id='93'> +5.0328665e+02 </wgt>
<wgt id='94'> +4.8870401e+02 </wgt>
<wgt id='95'> +5.0641852e+02 </wgt>
<wgt id='96'> +5.3224613e+02 </wgt>
<wgt id='97'> +4.9443251e+02 </wgt>
<wgt id='98'> +4.9949639e+02 </wgt>
<wgt id='99'> +4.7477421e+02 </wgt>
<wgt id='100'> +4.6398028e+02 </wgt>
<wgt id='101'> +5.5761014e+02 </wgt>
<wgt id='102'> +5.2384260e+02 </wgt>
<wgt id='103'> +5.3336438e+02 </wgt>
<wgt id='104'> +5.1023954e+02 </wgt>
<wgt id='105'> +5.2146100e+02 </wgt>
<wgt id='106'> +4.6930708e+02 </wgt>
<wgt id='107'> +4.8393995e+02 </wgt>
<wgt id='108'> +4.5392035e+02 </wgt>
<wgt id='109'> +4.8290602e+02 </wgt>
<wgt id='110'> +4.9841075e+02 </wgt>
<wgt id='111'> +4.9306961e+02 </wgt>
<wgt id='112'> +4.8630959e+02 </wgt>
<wgt id='113'> +4.7832288e+02 </wgt>
<wgt id='114'> +5.0037812e+02 </wgt>
<wgt id='115'> +4.7545301e+02 </wgt>
<wgt id='116'> +5.2316216e+02 </wgt>
<wgt id='117'> +4.9702827e+02 </wgt>
<wgt id='118'> +5.2636563e+02 </wgt>
<wgt id='119'> +5.0245766e+02 </wgt>
<wgt id='120'> +4.9474086e+02 </wgt>
<wgt id='121'> +5.0036491e+02 </wgt>
<wgt id='122'> +4.9991579e+02 </wgt>
<wgt id='123'> +5.0326576e+02 </wgt>
<wgt id='124'> +5.5592172e+02 </wgt>
<wgt id='125'> +5.6654915e+02 </wgt>
<wgt id='126'> +5.1472279e+02 </wgt>
<wgt id='127'> +5.1255548e+02 </wgt>
<wgt id='128'> +4.6239694e+02 </wgt>
<wgt id='129'> +5.5537232e+02 </wgt>
<wgt id='130'> +4.9440595e+02 </wgt>
<wgt id='131'> +5.1681904e+02 </wgt>
<wgt id='132'> +5.3547071e+02 </wgt>
<wgt id='133'> +5.2171138e+02 </wgt>
<wgt id='134'> +4.9829874e+02 </wgt>
<wgt id='135'> +5.0774202e+02 </wgt>
<wgt id='136'> +5.3337532e+02 </wgt>
<wgt id='137'> +4.8756670e+02 </wgt>
<wgt id='138'> +4.7731103e+02 </wgt>
<wgt id='139'> +5.1973531e+02 </wgt>
<wgt id='140'> +5.1441720e+02 </wgt>
<wgt id='141'> +5.1763419e+02 </wgt>
<wgt id='142'> +4.6558648e+02 </wgt>
<wgt id='143'> +5.1715402e+02 </wgt>
<wgt id='144'> +4.9265210e+02 </wgt>
<wgt id='145'> +4.9587431e+02 </wgt>
</rwgt>
</event>
<event>
 4      1 +5.0481800e+02 1.92297700e+02 7.54677100e-03 1.15640500e-01
       -1 -1    0    0    0  501 -0.0000000000e+00 +0.0000000000e+00 +5.7690444057e+02 5.7690444057e+02 0.0000000000e+00 0.0000e+00 -1.0000e+00
        1 -1    0    0  502    0 +0.0000000000e+00 -0.0000000000e+00 -6.5431797188e+01 6.5431797188e+01 0.0000000000e+00 0.0000e+00 1.0000e+00
        6  1    1    2  502    0 +6.3334306771e+01 -5.5119583961e+01 +3.0159145373e+02 3.5768115398e+02 1.7300000000e+02 0.0000e+00 -1.0000e+00
       -6  1    1    2    0  501 -6.3334306771e+01 +5.5119583961e+01 +2.0988118965e+02 2.8465508377e+02 1.7300000000e+02 0.0000e+00 1.0000e+00
<mgrwt>
<rscale>  2 0.19229769E+03</rscale>
<asrwt>0</asrwt>
<pdfrwt beam="2">  1        1 0.10066431E-01 0.19229769E+03</pdfrwt>
<pdfrwt beam="1">  1       -1 0.88754526E-01 0.19229769E+03</pdfrwt>
<totfact> 0.82862597E+02</totfact>
</mgrwt>
<rwgt>
<wgt id='1'> +6.1069724e+02 </wgt>
<wgt id='2'> +6.0240466e+02 </wgt>
<wgt id='3'> +5.0481800e+02 </wgt>
<wgt id='4'> +6.1069724e+02 </wgt>
<wgt id='5'> +5.0351996e+02 </wgt>
<wgt id='6'> +6.1952715e+02 </wgt>
<wgt id='7'> +6.1078935e+02 </wgt>
<wgt id='8'> +5.0852170e+02 </wgt>
<wgt id='9'> +6.1952714e+02 </wgt>
<wgt id='10'> +5.0716646e+02 </wgt>
<wgt id='11'> +6.2407244e+02 </wgt>
<wgt id='12'> +6.1500587e+02 </wgt>
<wgt id='13'> +5.0943061e+02 </wgt>
<wgt id='14'> +6.2407244e+02 </wgt>
<wgt id='15'> +5.0803691e+02 </wgt>
<wgt id='16'> +4.9762301e+02 </wgt>
<wgt id='17'> +4.9206697e+02 </wgt>
<wgt id='18'> +4.2498541e+02 </wgt>
<wgt id='19'> +4.9762300e+02 </wgt>
<wgt id='20'> +4.2401276e+02 </wgt>
<wgt id='21'> +4.9891590e+02 </wgt>
<wgt id='22'> +4.2810340e+02 </wgt>
<wgt id='23'> +5.0481800e+02 </wgt>
<wgt id='24'> +4.2708347e+02 </wgt>
<wgt id='25'> +5.0852171e+02 </wgt>
<wgt id='26'> +5.0236011e+02 </wgt>
<wgt id='27'> +4.2886858e+02 </wgt>
<wgt id='28'> +5.0852170e+02 </wgt>
<wgt id='29'> +4.2781647e+02 </wgt>
<wgt id='30'> +4.1892824e+02 </wgt>
<wgt id='31'> +4.1474767e+02 </wgt>
<wgt id='32'> +3.6270075e+02 </wgt>
<wgt id='33'> +4.1892824e+02 </wgt>
<wgt id='34'> +3.6193814e+02 </wgt>
<wgt id='35'> +4.2498541e+02 </wgt>
<wgt id='36'> +4.2052041e+02 </wgt>
<wgt id='37'> +3.6536178e+02 </wgt>
<wgt id='38'> +4.2498541e+02 </wgt>
<wgt id='39'> +3.6455930e+02 </wgt>
<wgt id='40'> +4.2810341e+02 </wgt>
<wgt id='41'> +4.2342343e+02 </wgt>
<wgt id='42'> +3.6601481e+02 </wgt>
<wgt id='43'> +4.2810340e+02 </wgt>
<wgt id='44'> +3.6518499e+02 </wgt>
<wgt id='45'> +5.0481800e+02 </wgt>
<wgt id='46'> +5.1540757e+02 </wgt>
<wgt id='47'> +5.1050401e+02 </wgt>
<wgt id='48'> +4.6386965e+02 </wgt>
<wgt id='49'> +4.9936364e+02 </wgt>
<wgt id='50'> +4.5438840e+02 </wgt>
<wgt id='51'> +4.4109177e+02 </wgt>
<wgt id='52'> +5.6749811e+02 </wgt>
<wgt id='53'> +5.7134264e+02 </wgt>
<wgt id='54'> +5.0447177e+02 </wgt>
<wgt id='55'> +4.7621328e+02 </wgt>
<wgt id='56'> +4.6378660e+02 </wgt>
<wgt id='57'> +4.3007712e+02 </wgt>
<wgt id='58'> +6.3290519e+02 </wgt>
<wgt id='59'> +4.7164155e+02 </wgt>
<wgt id='60'> +4.9387083e+02 </wgt>
<wgt id='61'> +4.6975420e+02 </wgt>
<wgt id='62'> +5.2172673e+02 </wgt>
<wgt id='63'> +5.3834892e+02 </wgt>
<wgt id='64'> +4.8727978e+02 </wgt>
<wgt id='65'> +4.6707506e+02 </wgt>
<wgt id='66'> +4.4603033e+02 </wgt>
<wgt id='67'> +5.1891995e+02 </wgt>
<wgt id='68'> +4.6853846e+02 </wgt>
<wgt id='69'> +4.7053669e+02 </wgt>
<wgt id='70'> +6.1201380e+02 </wgt>
<wgt id='71'> +4.5999203e+02 </wgt>
<wgt id='72'> +4.5611343e+02 </wgt>
<wgt id='73'> +5.4271479e+02 </wgt>
<wgt id='74'> +5.1075387e+02 </wgt>
<wgt id='75'> +4.7564186e+02 </wgt>
<wgt id='76'> +5.0997675e+02 </wgt>
<wgt id='77'> +4.9282298e+02 </wgt>
<wgt id='78'> +4.8063743e+02 </wgt>
<wgt id='79'> +5.3328554e+02 </wgt>
<wgt id='80'> +4.8307282e+02 </wgt>
<wgt id='81'> +5.8645342e+02 </wgt>
<wgt id='82'> +4.9786800e+02 </wgt>
<wgt id='83'> +4.7197184e+02 </wgt>
<wgt id='84'> +5.1728863e+02 </wgt>
<wgt id='85'> +4.8997149e+02 </wgt>
<wgt id='86'> +5.8551547e+02 </wgt>
<wgt id='87'> +5.3648123e+02 </wgt>
<wgt id='88'> +4.6914983e+02 </wgt>
<wgt id='89'> +6.3694901e+02 </wgt>
<wgt id='90'> +5.7714170e+02 </wgt>
<wgt id='91'> +4.4194764e+02 </wgt>
<wgt id='92'> +4.7060799e+02 </wgt>
<wgt id='93'> +5.1694930e+02 </wgt>
<wgt id='94'> +5.2136970e+02 </wgt>
<wgt id='95'> +4.6490491e+02 </wgt>
<wgt id='96'> +5.1387934e+02 </wgt>
<wgt id='97'> +4.6925135e+02 </wgt>
<wgt id='98'> +4.9166247e+02 </wgt>
<wgt id='99'> +5.8012528e+02 </wgt>
<wgt id='100'> +4.2330685e+02 </wgt>
<wgt id='101'> +5.0813113e+02 </wgt>
<wgt id='102'> +5.2795209e+02 </wgt>
<wgt id='103'> +5.6587874e+02 </wgt>
<wgt id='104'> +4.3938299e+02 </wgt>
<wgt id='105'> +5.3930806e+02 </wgt>
<wgt id='106'> +5.1751291e+02 </wgt>
<wgt id='107'> +5.1424656e+02 </wgt>
<wgt id='108'> +4.5963568e+02 </wgt>
<wgt id='109'> +4.4259573e+02 </wgt>
<wgt id='110'> +5.5042211e+02 </wgt>
<wgt id='111'> +4.9246763e+02 </wgt>
<wgt id='112'> +4.6126430e+02 </wgt>
<wgt id='113'> +5.3381501e+02 </wgt>
<wgt id='114'> +4.6935034e+02 </wgt>
<wgt id='115'> +4.3097887e+02 </wgt>
<wgt id='116'> +4.7774082e+02 </wgt>
<wgt id='117'> +4.5363732e+02 </wgt>
<wgt id='118'> +5.2508327e+02 </wgt>
<wgt id='119'> +5.6126683e+02 </wgt>
<wgt id='120'> +5.1408668e+02 </wgt>
<wgt id='121'> +4.7943056e+02 </wgt>
<wgt id='122'> +5.0044714e+02 </wgt>
<wgt id='123'> +4.9255076e+02 </wgt>
<wgt id='124'> +4.8628429e+02 </wgt>
<wgt id='125'> +4.6518658e+02 </wgt>
<wgt id='126'> +5.3515437e+02 </wgt>
<wgt id='127'> +5.3021580e+02 </wgt>
<wgt id='128'> +4.6821516e+02 </wgt>
<wgt id='129'> +5.4045407e+02 </wgt>
<wgt id='130'> +4.4511981e+02 </wgt>
<wgt id='131'> +5.5894626e+02 </wgt>
<wgt id='132'> +4.8433615e+02 </wgt>
<wgt id='133'> +6.6645041e+02 </wgt>
<wgt id='134'> +4.4869376e+02 </wgt>
<wgt id='135'> +4.3749118e+02 </wgt>
<wgt id='136'> +5.8402258e+02 </wgt>
<wgt id='137'> +5.1228709e+02 </wgt>
<wgt id='138'> +4.7571238e+02 </wgt>
<wgt id='139'> +6.4962472e+02 </wgt>
<wgt id='140'> +4.8709615e+02 </wgt>
<wgt id='141'> +5.5194383e+02 </wgt>
<wgt id='142'> +4.4206073e+02 </wgt>
<wgt id='143'> +5.2191381e+02 </wgt>
<wgt id='144'> +4.9538760e+02 </wgt>
<wgt id='145'> +5.5325337e+02 </wgt>
</rwgt>
</event>
<event>
 4      1 +5.0481800e+02 1.77969000e+02 7.54677100e-03 1.16978300e-01
       21 -1    0    0  503  502 +0.0000000000e+00 +0.0000000000e+00 +1.3902860566e+02 1.3902860566e+02 0.0000000000e+00 0.0000e+00 1.0000e+00
       21 -1    0    0  501  503 -0.0000000000e+00 -0.0000000000e+00 -3.6050407748e+02 3.6050407748e+02 0.0000000000e+00 0.0000e+00 1.0000e+00
        6  1    1    2  501    0 +5.8170278213e+00 -4.1353590875e+01 -2.6226632485e+02 3.1694886408e+02 1.7300000000e+02 0.0000e+00 1.0000e+00
       -6  1    1    2    0  502 -5.8170278213e+00 +4.1353590875e+01 +4.0790853032e+01 1.8258381906e+02 1.7300000000e+02 0.0000e+00 1.0000e+00
<mgrwt>
<rscale>  2 0.17796898E+03</rscale>
<asrwt>0</asrwt>
<pdfrwt beam="1">  1       21 0.21389017E-01 0.17796898E+03</pdfrwt>
<pdfrwt beam="2">  1       21 0.55462164E-01 0.17796898E+03</pdfrwt>
<totfact> 0.62781452E+04</totfact>
</mgrwt>
<rwgt>
<wgt id='1'> +6.5095443e+02 </wgt>
<wgt id='2'> +6.4752156e+02 </wgt>
<wgt id='3'> +5.0481800e+02 </wgt>
<wgt id='4'> +6.5095443e+02 </wgt>
<wgt id='5'> +4.6567164e+02 </wgt>
<wgt id='6'> +6.2177757e+02 </wgt>
<wgt id='7'> +6.1830246e+02 </wgt>
<wgt id='8'> +4.7323812e+02 </wgt>
<wgt id='9'> +6.2177757e+02 </wgt>
<wgt id='10'> +4.3610726e+02 </wgt>
<wgt id='11'> +5.8288105e+02 </wgt>
<wgt id='12'> +5.7952761e+02 </wgt>
<wgt id='13'> +4.4313662e+02 </wgt>
<wgt id='14'> +5.8288105e+02 </wgt>
<wgt id='15'> +4.0839493e+02 </wgt>
<wgt id='16'> +5.2850654e+02 </wgt>
<wgt id='17'> +5.2607891e+02 </wgt>
<wgt id='18'> +4.2399508e+02 </wgt>
<wgt id='19'> +5.2850654e+02 </wgt>
<wgt id='20'> +3.9330767e+02 </wgt>
<wgt id='21'> +5.0233986e+02 </wgt>
<wgt id='22'> +3.9747123e+02 </wgt>
<wgt id='23'> +5.0481800e+02 </wgt>
<wgt id='24'> +3.6833750e+02 </wgt>
<wgt id='25'> +4.7323812e+02 </wgt>
<wgt id='26'> +4.7083723e+02 </wgt>
<wgt id='27'> +3.7218908e+02 </wgt>
<wgt id='28'> +4.7323812e+02 </wgt>
<wgt id='29'> +3.4493159e+02 </wgt>
<wgt id='30'> +4.4389101e+02 </wgt>
<wgt id='31'> +4.4204882e+02 </wgt>
<wgt id='32'> +3.6134559e+02 </wgt>
<wgt id='33'> +4.4389101e+02 </wgt>
<wgt id='34'> +3.3657668e+02 </wgt>
<wgt id='35'> +4.2399508e+02 </wgt>
<wgt id='36'> +4.2210158e+02 </wgt>
<wgt id='37'> +3.3874091e+02 </wgt>
<wgt id='38'> +4.2399508e+02 </wgt>
<wgt id='39'> +3.1520822e+02 </wgt>
<wgt id='40'> +3.9747123e+02 </wgt>
<wgt id='41'> +3.9563084e+02 </wgt>
<wgt id='42'> +3.1719444e+02 </wgt>
<wgt id='43'> +3.9747123e+02 </wgt>
<wgt id='44'> +2.9517839e+02 </wgt>
<wgt id='45'> +5.0481800e+02 </wgt>
<wgt id='46'> +5.0583118e+02 </wgt>
<wgt id='47'> +5.2251058e+02 </wgt>
<wgt id='48'> +5.0653898e+02 </wgt>
<wgt id='49'> +5.0350047e+02 </wgt>
<wgt id='50'> +5.9047256e+02 </wgt>
<wgt id='51'> +4.9498980e+02 </wgt>
<wgt id='52'> +5.0261994e+02 </wgt>
<wgt id='53'> +5.0938709e+02 </wgt>
<wgt id='54'> +5.0784191e+02 </wgt>
<wgt id='55'> +4.5283206e+02 </wgt>
<wgt id='56'> +4.6842346e+02 </wgt>
<wgt id='57'> +4.9249290e+02 </wgt>
<wgt id='58'> +5.0747121e+02 </wgt>
<wgt id='59'> +4.9980257e+02 </wgt>
<wgt id='60'> +4.8624184e+02 </wgt>
<wgt id='61'> +4.8766898e+02 </wgt>
<wgt id='62'> +4.9816019e+02 </wgt>
<wgt id='63'> +5.0515356e+02 </wgt>
<wgt id='64'> +4.9927592e+02 </wgt>
<wgt id='65'> +5.9304047e+02 </wgt>
<wgt id='66'> +4.9282474e+02 </wgt>
<wgt id='67'> +5.0924146e+02 </wgt>
<wgt id='68'> +5.4205236e+02 </wgt>
<wgt id='69'> +4.9282595e+02 </wgt>
<wgt id='70'> +4.9627921e+02 </wgt>
<wgt id='71'> +5.1440011e+02 </wgt>
<wgt id='72'> +4.9059522e+02 </wgt>
<wgt id='73'> +4.9776668e+02 </wgt>
<wgt id='74'> +5.2088927e+02 </wgt>
<wgt id='75'> +5.1577454e+02 </wgt>
<wgt id='76'> +4.9062506e+02 </wgt>
<wgt id='77'> +4.8725022e+02 </wgt>
<wgt id='78'> +5.0337137e+02 </wgt>
<wgt id='79'> +4.8518067e+02 </wgt>
<wgt id='80'> +4.9990100e+02 </wgt>
<wgt id='81'> +4.9527538e+02 </wgt>
<wgt id='82'> +5.1686802e+02 </wgt>
<wgt id='83'> +5.1488466e+02 </wgt>
<wgt id='84'> +5.5371788e+02 </wgt>
<wgt id='85'> +5.3026605e+02 </wgt>
<wgt id='86'> +5.0179615e+02 </wgt>
<wgt id='87'> +5.0525933e+02 </wgt>
<wgt id='88'> +5.1288517e+02 </wgt>
<wgt id='89'> +5.1716197e+02 </wgt>
<wgt id='90'> +5.1141532e+02 </wgt>
<wgt id='91'> +5.3601632e+02 </wgt>
<wgt id='92'> +4.6412442e+02 </wgt>
<wgt id='93'> +4.9662928e+02 </wgt>
<wgt id='94'> +5.0149991e+02 </wgt>
<wgt id='95'> +4.8513209e+02 </wgt>
<wgt id='96'> +5.4528232e+02 </wgt>
<wgt id='97'> +5.1179023e+02 </wgt>
<wgt id='98'> +4.8218460e+02 </wgt>
<wgt id='99'> +4.8963586e+02 </wgt>
<wgt id='100'> +4.9901589e+02 </wgt>
<wgt id='101'> +5.3254369e+02 </wgt>
<wgt id='102'> +4.9226216e+02 </wgt>
<wgt id='103'> +5.4862363e+02 </wgt>
<wgt id='104'> +5.0399940e+02 </wgt>
<wgt id='105'> +5.2464500e+02 </wgt>
<wgt id='106'> +4.6368391e+02 </wgt>
<wgt id='107'> +4.9706778e+02 </wgt>
<wgt id='108'> +4.5116509e+02 </wgt>
<wgt id='109'> +4.7397838e+02 </wgt>
<wgt id='110'> +5.0570888e+02 </wgt>
<wgt id='111'> +4.9145090e+02 </wgt>
<wgt id='112'> +4.8066509e+02 </wgt>
<wgt id='113'> +4.6326713e+02 </wgt>
<wgt id='114'> +5.0226107e+02 </wgt>
<wgt id='115'> +5.0266958e+02 </wgt>
<wgt id='116'> +5.0555313e+02 </wgt>
<wgt id='117'> +5.1028668e+02 </wgt>
<wgt id='118'> +5.1859787e+02 </wgt>
<wgt id='119'> +4.8543383e+02 </wgt>
<wgt id='120'> +5.0071423e+02 </wgt>
<wgt id='121'> +4.9102969e+02 </wgt>
<wgt id='122'> +4.9837505e+02 </wgt>
<wgt id='123'> +5.1097430e+02 </wgt>
<wgt id='124'> +5.4069038e+02 </wgt>
<wgt id='125'> +5.4187320e+02 </wgt>
<wgt id='126'> +5.2398244e+02 </wgt>
<wgt id='127'> +5.1993830e+02 </wgt>
<wgt id='128'> +4.6714428e+02 </wgt>
<wgt id='129'> +5.7188349e+02 </wgt>
<wgt id='130'> +5.0776081e+02 </wgt>
<wgt id='131'> +5.4008196e+02 </wgt>
<wgt id='132'> +5.0223475e+02 </wgt>
<wgt id='133'> +5.0257670e+02 </wgt>
<wgt id='134'> +4.7591671e+02 </wgt>
<wgt id='135'> +5.1767037e+02 </wgt>
<wgt id='136'> +4.8678488e+02 </wgt>
<wgt id='137'> +4.7551107e+02 </wgt>
<wgt id='138'> +4.5938832e+02 </wgt>
<wgt id='139'> +5.1518782e+02 </wgt>
<wgt id='140'> +5.3547865e+02 </wgt>
<wgt id='141'> +5.0427224e+02 </wgt>
<wgt id='142'> +5.0603339e+02 </wgt>
<wgt id='143'> +5.0184535e+02 </wgt>
<wgt id='144'> +5.0403341e+02 </wgt>
<wgt id='145'> +5.0597702e+02 </wgt>
</rwgt>
</event>
<event>
 4      1 +5.0481800e+02 2.10702700e+02 7.54677100e-03 1.14101100e-01
       21 -1    0    0  503  502 +0.0000000000e+00 +0.0000000000e+00 +6.0813016195e+02 6.0813016195e+02 0.0000000000e+00 0.0000e+00 1.0000e+00
       21 -1    0    0  501  503 -0.0000000000e+00 -0.0000000000e+00 -7.3217436605e+01 7.3217436605e+01 0.0000000000e+00 0.0000e+00 -1.0000e+00
        6  1    1    2  501    0 -2.9672439247e+01 -1.1655968120e+02 +2.4904003755e+02 3.2621550122e+02 1.7300000000e+02 0.0000e+00 -1.0000e+00
       -6  1    1    2    0  502 +2.9672439247e+01 +1.1655968120e+02 +2.8587268780e+02 3.5513209734e+02 1.7300000000e+02 0.0000e+00 -1.0000e+00
<mgrwt>
<rscale>  2 0.21070266E+03</rscale>
<asrwt>0</asrwt>
<pdfrwt beam="1">  1       21 0.93558483E-01 0.21070266E+03</pdfrwt>
<pdfrwt beam="2">  1       21 0.11264221E-01 0.21070266E+03</pdfrwt>
<totfact> 0.62533293E+04</totfact>
</mgrwt>
<rwgt>
<wgt id='1'> +6.5010360e+02 </wgt>
<wgt id='2'> +5.8522610e+02 </wgt>
<wgt id='3'> +5.0481800e+02 </wgt>
<wgt id='4'> +6.5010360e+02 </wgt>
<wgt id='5'> +5.0455669e+02 </wgt>
<wgt id='6'> +6.1650273e+02 </wgt>
<wgt id='7'> +5.5015339e+02 </wgt>
<wgt id='8'> +4.7147241e+02 </wgt>
<wgt id='9'> +6.1650272e+02 </wgt>
<wgt id='10'> +4.7122852e+02 </wgt>
<wgt id='11'> +5.7577985e+02 </wgt>
<wgt id='12'> +5.1378415e+02 </wgt>
<wgt id='13'> +4.4030818e+02 </wgt>
<wgt id='14'> +5.7577984e+02 </wgt>
<wgt id='15'> +4.4008066e+02 </wgt>
<wgt id='16'> +5.3233179e+02 </wgt>
<wgt id='17'> +4.8641224e+02 </wgt>
<wgt id='18'> +4.2588410e+02 </wgt>
<wgt id='19'> +5.3233179e+02 </wgt>
<wgt id='20'> +4.2567578e+02 </wgt>
<wgt id='21'> +4.5726146e+02 </wgt>
<wgt id='22'> +3.9775247e+02 </wgt>
<wgt id='23'> +5.0481800e+02 </wgt>
<wgt id='24'> +3.9755804e+02 </wgt>
<wgt id='25'> +4.7147242e+02 </wgt>
<wgt id='26'> +4.2703307e+02 </wgt>
<wgt id='27'> +3.7146111e+02 </wgt>
<wgt id='28'> +4.7147241e+02 </wgt>
<wgt id='29'> +3.7127975e+02 </wgt>
<wgt id='30'> +4.4909581e+02 </wgt>
<wgt id='31'> +4.1264429e+02 </wgt>
<wgt id='32'> +3.6406648e+02 </wgt>
<wgt id='33'> +4.4909580e+02 </wgt>
<wgt id='34'> +3.6389786e+02 </wgt>
<wgt id='35'> +4.2588410e+02 </wgt>
<wgt id='36'> +3.8791444e+02 </wgt>
<wgt id='37'> +3.4001819e+02 </wgt>
<wgt id='38'> +4.2588410e+02 </wgt>
<wgt id='39'> +3.3986082e+02 </wgt>
<wgt id='40'> +3.9775247e+02 </wgt>
<wgt id='41'> +3.6227041e+02 </wgt>
<wgt id='42'> +3.1754306e+02 </wgt>
<wgt id='43'> +3.9775247e+02 </wgt>
<wgt id='44'> +3.1739627e+02 </wgt>
<wgt id='45'> +5.0481800e+02 </wgt>
<wgt id='46'> +5.1311767e+02 </wgt>
<wgt id='47'> +5.1924053e+02 </wgt>
<wgt id='48'> +5.0720683e+02 </wgt>
<wgt id='49'> +4.9729763e+02 </wgt>
<wgt id='50'> +5.9246315e+02 </wgt>
<wgt id='51'> +4.9267192e+02 </wgt>
<wgt id='52'> +5.0319218e+02 </wgt>
<wgt id='53'> +5.0054237e+02 </wgt>
<wgt id='54'> +5.1242538e+02 </wgt>
<wgt id='55'> +4.7797023e+02 </wgt>
<wgt id='56'> +4.6512072e+02 </wgt>
<wgt id='57'> +5.0569243e+02 </wgt>
<wgt id='58'> +4.9690211e+02 </wgt>
<wgt id='59'> +5.1970958e+02 </wgt>
<wgt id='60'> +5.0150337e+02 </wgt>
<wgt id='61'> +4.5263113e+02 </wgt>
<wgt id='62'> +4.9498294e+02 </wgt>
<wgt id='63'> +5.0737409e+02 </wgt>
<wgt id='64'> +4.9706511e+02 </wgt>
<wgt id='65'> +5.5960107e+02 </wgt>
<wgt id='66'> +4.9614276e+02 </wgt>
<wgt id='67'> +5.0789793e+02 </wgt>
<wgt id='68'> +5.5296638e+02 </wgt>
<wgt id='69'> +5.0166222e+02 </wgt>
<wgt id='70'> +4.9973615e+02 </wgt>
<wgt id='71'> +5.0933410e+02 </wgt>
<wgt id='72'> +4.8860407e+02 </wgt>
<wgt id='73'> +4.9046814e+02 </wgt>
<wgt id='74'> +5.3104061e+02 </wgt>
<wgt id='75'> +5.1610638e+02 </wgt>
<wgt id='76'> +4.9857535e+02 </wgt>
<wgt id='77'> +4.9356217e+02 </wgt>
<wgt id='78'> +4.8591226e+02 </wgt>
<wgt id='79'> +4.9804334e+02 </wgt>
<wgt id='80'> +4.9202164e+02 </wgt>
<wgt id='81'> +4.9690536e+02 </wgt>
<wgt id='82'> +5.0043860e+02 </wgt>
<wgt id='83'> +5.0974509e+02 </wgt>
<wgt id='84'> +5.3978604e+02 </wgt>
<wgt id='85'> +5.1412866e+02 </wgt>
<wgt id='86'> +5.0628537e+02 </wgt>
<wgt id='87'> +5.0721238e+02 </wgt>
<wgt id='88'> +5.0664713e+02 </wgt>
<wgt id='89'> +5.0934160e+02 </wgt>
<wgt id='90'> +5.1265234e+02 </wgt>
<wgt id='91'> +5.1724439e+02 </wgt>
<wgt id='92'> +4.6585863e+02 </wgt>
<wgt id='93'> +5.0144110e+02 </wgt>
<wgt id='94'> +4.9285797e+02 </wgt>
<wgt id='95'> +4.9847060e+02 </wgt>
<wgt id='96'> +5.3775099e+02 </wgt>
<wgt id='97'> +5.0042594e+02 </wgt>
<wgt id='98'> +4.9375780e+02 </wgt>
<wgt id='99'> +4.8012357e+02 </wgt>
<wgt id='100'> +4.7532752e+02 </wgt>
<wgt id='101'> +5.5076298e+02 </wgt>
<wgt id='102'> +5.1448641e+02 </wgt>
<wgt id='103'> +5.4005461e+02 </wgt>
<wgt id='104'> +5.0842689e+02 </wgt>
<wgt id='105'> +5.2177407e+02 </wgt>
<wgt id='106'> +4.6542377e+02 </wgt>
<wgt id='107'> +4.8620100e+02 </wgt>
<wgt id='108'> +4.5105192e+02 </wgt>
<wgt id='109'> +4.7829772e+02 </wgt>
<wgt id='110'> +5.0080592e+02 </wgt>
<wgt id='111'> +4.9219632e+02 </wgt>
<wgt id='112'> +4.8176743e+02 </wgt>
<wgt id='113'> +4.7150014e+02 </wgt>
<wgt id='114'> +4.9809449e+02 </wgt>
<wgt id='115'> +4.8302733e+02 </wgt>
<wgt id='116'> +5.1836923e+02 </wgt>
<wgt id='117'> +5.0078465e+02 </wgt>
<wgt id='118'> +5.2526209e+02 </wgt>
<wgt id='119'> +4.9483240e+02 </wgt>
<wgt id='120'> +4.9457224e+02 </wgt>
<wgt id='121'> +4.9628370e+02 </wgt>
<wgt id='122'> +4.9947463e+02 </wgt>
<wgt id='123'> +5.0678424e+02 </wgt>
<wgt id='124'> +5.5240258e+02 </wgt>
<wgt id='125'> +5.5844999e+02 </wgt>
<wgt id='126'> +5.1855640e+02 </wgt>
<wgt id='127'> +5.1603781e+02 </wgt>
<wgt id='128'> +4.6268376e+02 </wgt>
<wgt id='129'> +5.6201127e+02 </wgt>
<wgt id='130'> +5.0006848e+02 </wgt>
<wgt id='131'> +5.2528948e+02 </wgt>
<wgt id='132'> +5.2544919e+02 </wgt>
<wgt id='133'> +5.1583009e+02 </wgt>
<wgt id='134'> +4.9077920e+02 </wgt>
<wgt id='135'> +5.1137710e+02 </wgt>
<wgt id='136'> +5.1746186e+02 </wgt>
<wgt id='137'> +4.8387271e+02 </wgt>
<wgt id='138'> +4.7256488e+02 </wgt>
<wgt id='139'> +5.1848052e+02 </wgt>
<wgt id='140'> +5.2076944e+02 </wgt>
<wgt id='141'> +5.1267224e+02 </wgt>
<wgt id='142'> +4.7933088e+02 </wgt>
<wgt id='143'> +5.1289100e+02 </wgt>
<wgt id='144'> +4.9630232e+02 </wgt>
<wgt id='145'> +5.0072221e+02 </wgt>
</rwgt>
</event>
<event>
 4      1 +5.0481800e+02 1.74675900e+02 7.54677100e-03 1.17305700e-01
       21 -1    0    0  501  502 +0.0000000000e+00 +0.0000000000e+00 +4.5934067760e+02 4.5934067760e+02 0.0000000000e+00 0.0000e+00 1.0000e+00
       21 -1    0    0  502  503 -0.0000000000e+00 -0.0000000000e+00 -7.8455352868e+01 7.8455352868e+01 0.0000000000e+00 0.0000e+00 1.0000e+00
        6  1    1    2  501    0 -1.6884217442e+01 +1.7251324725e+01 +2.9573972497e+02 3.4347295370e+02 1.7300000000e+02 0.0000e+00 1.0000e+00
       -6  1    1    2    0  503 +1.6884217442e+01 -1.7251324725e+01 +8.5145599767e+01 1.9432307676e+02 1.7300000000e+02 0.0000e+00 1.0000e+00
<mgrwt>
<rscale>  2 0.17467594E+03</rscale>
<asrwt>0</asrwt>
<pdfrwt beam="1">  1       21 0.70667795E-01 0.17467594E+03</pdfrwt>
<pdfrwt beam="2">  1       21 0.12070055E-01 0.17467594E+03</pdfrwt>
<totfact> 0.10610580E+05</totfact>
</mgrwt>
<rwgt>
<wgt id='1'> +6.4552990e+02 </wgt>
<wgt id='2'> +8.6267999e+02 </wgt>
<wgt id='3'> +5.0481800e+02 </wgt>
<wgt id='4'> +6.4552989e+02 </wgt>
<wgt id='5'> +4.9061788e+02 </wgt>
<wgt id='6'> +6.2232484e+02 </wgt>
<wgt id='7'> +8.4180100e+02 </wgt>
<wgt id='8'> +4.7696148e+02 </wgt>
<wgt id='9'> +6.2232483e+02 </wgt>
<wgt id='10'> +4.6306775e+02 </wgt>
<wgt id='11'> +5.8798414e+02 </wgt>
<wgt id='12'> +8.1284850e+02 </wgt>
<wgt id='13'> +4.4961024e+02 </wgt>
<wgt id='14'> +5.8798413e+02 </wgt>
<wgt id='15'> +4.3647579e+02 </wgt>
<wgt id='16'> +5.2364150e+02 </wgt>
<wgt id='17'> +6.8019516e+02 </wgt>
<wgt id='18'> +4.2373177e+02 </wgt>
<wgt id='19'> +5.2364150e+02 </wgt>
<wgt id='20'> +4.1288053e+02 </wgt>
<wgt id='21'> +6.6373276e+02 </wgt>
<wgt id='22'> +4.0034969e+02 </wgt>
<wgt id='23'> +5.0481800e+02 </wgt>
<wgt id='24'> +3.8969565e+02 </wgt>
<wgt id='25'> +4.7696148e+02 </wgt>
<wgt id='26'> +6.4090465e+02 </wgt>
<wgt id='27'> +3.7739174e+02 </wgt>
<wgt id='28'> +4.7696148e+02 </wgt>
<wgt id='29'> +3.6731713e+02 </wgt>
<wgt id='30'> +4.3953175e+02 </wgt>
<wgt id='31'> +5.5001288e+02 </wgt>
<wgt id='32'> +3.6099671e+02 </wgt>
<wgt id='33'> +4.3953175e+02 </wgt>
<wgt id='34'> +3.5228762e+02 </wgt>
<wgt id='35'> +4.2373177e+02 </wgt>
<wgt id='36'> +5.3670121e+02 </wgt>
<wgt id='37'> +3.4107644e+02 </wgt>
<wgt id='38'> +4.2373177e+02 </wgt>
<wgt id='39'> +3.3250528e+02 </wgt>
<wgt id='40'> +4.0034970e+02 </wgt>
<wgt id='41'> +5.1824216e+02 </wgt>
<wgt id='42'> +3.2151750e+02 </wgt>
<wgt id='43'> +4.0034969e+02 </wgt>
<wgt id='44'> +3.1341095e+02 </wgt>
<wgt id='45'> +5.0481800e+02 </wgt>
<wgt id='46'> +5.0747256e+02 </wgt>
<wgt id='47'> +5.1928457e+02 </wgt>
<wgt id='48'> +5.0608057e+02 </wgt>
<wgt id='49'> +5.0196136e+02 </wgt>
<wgt id='50'> +5.8392226e+02 </wgt>
<wgt id='51'> +4.9476491e+02 </wgt>
<wgt id='52'> +5.0374736e+02 </wgt>
<wgt id='53'> +5.0572839e+02 </wgt>
<wgt id='54'> +5.0885039e+02 </wgt>
<wgt id='55'> +4.6401397e+02 </wgt>
<wgt id='56'> +4.6905945e+02 </wgt>
<wgt id='57'> +4.9810797e+02 </wgt>
<wgt id='58'> +5.0595874e+02 </wgt>
<wgt id='59'> +5.0728000e+02 </wgt>
<wgt id='60'> +4.9349619e+02 </wgt>
<wgt id='61'> +4.7435761e+02 </wgt>
<wgt id='62'> +4.9737970e+02 </wgt>
<wgt id='63'> +5.0558211e+02 </wgt>
<wgt id='64'> +4.9915375e+02 </wgt>
<wgt id='65'> +5.7627169e+02 </wgt>
<wgt id='66'> +4.9379949e+02 </wgt>
<wgt id='67'> +5.0869681e+02 </wgt>
<wgt id='68'> +5.4377892e+02 </wgt>
<wgt id='69'> +4.9334321e+02 </wgt>
<wgt id='70'> +4.9771175e+02 </wgt>
<wgt id='71'> +5.1313481e+02 </wgt>
<wgt id='72'> +4.9417743e+02 </wgt>
<wgt id='73'> +4.9697303e+02 </wgt>
<wgt id='74'> +5.2251488e+02 </wgt>
<wgt id='75'> +5.1444695e+02 </wgt>
<wgt id='76'> +4.9450981e+02 </wgt>
<wgt id='77'> +4.9033276e+02 </wgt>
<wgt id='78'> +4.9827476e+02 </wgt>
<wgt id='79'> +4.8997851e+02 </wgt>
<wgt id='80'> +4.9807864e+02 </wgt>
<wgt id='81'> +4.9651457e+02 </wgt>
<wgt id='82'> +5.1068713e+02 </wgt>
<wgt id='83'> +5.1121191e+02 </wgt>
<wgt id='84'> +5.4574254e+02 </wgt>
<wgt id='85'> +5.2368227e+02 </wgt>
<wgt id='86'> +5.0211916e+02 </wgt>
<wgt id='87'> +5.0593714e+02 </wgt>
<wgt id='88'> +5.0887879e+02 </wgt>
<wgt id='89'> +5.1504838e+02 </wgt>
<wgt id='90'> +5.1282250e+02 </wgt>
<wgt id='91'> +5.2919108e+02 </wgt>
<wgt id='92'> +4.6931529e+02 </wgt>
<wgt id='93'> +4.9806578e+02 </wgt>
<wgt id='94'> +5.0006517e+02 </wgt>
<wgt id='95'> +4.9136999e+02 </wgt>
<wgt id='96'> +5.3885587e+02 </wgt>
<wgt id='97'> +5.0845681e+02 </wgt>
<wgt id='98'> +4.8611843e+02 </wgt>
<wgt id='99'> +4.8828016e+02 </wgt>
<wgt id='100'> +4.9411247e+02 </wgt>
<wgt id='101'> +5.3633850e+02 </wgt>
<wgt id='102'> +4.9850560e+02 </wgt>
<wgt id='103'> +5.4417550e+02 </wgt>
<wgt id='104'> +5.0373317e+02 </wgt>
<wgt id='105'> +5.2439750e+02 </wgt>
<wgt id='106'> +4.6765138e+02 </wgt>
<wgt id='107'> +4.9523787e+02 </wgt>
<wgt id='108'> +4.5394118e+02 </wgt>
<wgt id='109'> +4.7750313e+02 </wgt>
<wgt id='110'> +5.0543847e+02 </wgt>
<wgt id='111'> +4.9272199e+02 </wgt>
<wgt id='112'> +4.8147135e+02 </wgt>
<wgt id='113'> +4.6789084e+02 </wgt>
<wgt id='114'> +5.0146252e+02 </wgt>
<wgt id='115'> +4.9493193e+02 </wgt>
<wgt id='116'> +5.0782304e+02 </wgt>
<wgt id='117'> +5.0631835e+02 </wgt>
<wgt id='118'> +5.1928945e+02 </wgt>
<wgt id='119'> +4.8959690e+02 </wgt>
<wgt id='120'> +4.9707035e+02 </wgt>
<wgt id='121'> +4.9462216e+02 </wgt>
<wgt id='122'> +4.9958080e+02 </wgt>
<wgt id='123'> +5.0826645e+02 </wgt>
<wgt id='124'> +5.4204869e+02 </wgt>
<wgt id='125'> +5.4449379e+02 </wgt>
<wgt id='126'> +5.2053248e+02 </wgt>
<wgt id='127'> +5.1796695e+02 </wgt>
<wgt id='128'> +4.6580138e+02 </wgt>
<wgt id='129'> +5.6656731e+02 </wgt>
<wgt id='130'> +5.0254668e+02 </wgt>
<wgt id='131'> +5.3424768e+02 </wgt>
<wgt id='132'> +5.1148950e+02 </wgt>
<wgt id='133'> +5.0609949e+02 </wgt>
<wgt id='134'> +4.8240719e+02 </wgt>
<wgt id='135'> +5.1549297e+02 </wgt>
<wgt id='136'> +4.9826214e+02 </wgt>
<wgt id='137'> +4.7778949e+02 </wgt>
<wgt id='138'> +4.6213674e+02 </wgt>
<wgt id='139'> +5.1592985e+02 </wgt>
<wgt id='140'> +5.2980843e+02 </wgt>
<wgt id='141'> +5.0563221e+02 </wgt>
<wgt id='142'> +4.9788353e+02 </wgt>
<wgt id='143'> +5.0675172e+02 </wgt>
<wgt id='144'> +5.0347356e+02 </wgt>
<wgt id='145'> +5.0473988e+02 </wgt>
</rwgt>
</event>
<event>
 4      1 +5.0481800e+02 2.81439200e+02 7.54677100e-03 1.09490500e-01
       21 -1    0    0  503  502 +0.0000000000e+00 +0.0000000000e+00 +3.6585909675e+02 3.6585909675e+02 0.0000000000e+00 0.0000e+00 1.0000e+00
       21 -1    0    0  501  503 -0.0000000000e+00 -0.0000000000e+00 -3.0094696226e+02 3.0094696226e+02 0.0000000000e+00 0.0000e+00 -1.0000e+00
        6  1    1    2  501    0 +1.3361758972e+02 -1.7727203741e+02 -1.4415576702e+02 3.1621024761e+02 1.7300000000e+02 0.0000e+00 -1.0000e+00
       -6  1    1    2    0  502 -1.3361758972e+02 +1.7727203741e+02 +2.0906790150e+02 3.5059581140e+02 1.7300000000e+02 0.0000e+00 1.0000e+00
<mgrwt>
<rscale>  2 0.28143922E+03</rscale>
<asrwt>0</asrwt>
<pdfrwt beam="1">  1       21 0.56286015E-01 0.28143922E+03</pdfrwt>
<pdfrwt beam="2">  1       21 0.46299533E-01 0.28143922E+03</pdfrwt>
<totfact> 0.12630615E+04</totfact>
</mgrwt>
<rwgt>
<wgt id='1'> +6.6156404e+02 </wgt>
<wgt id='2'> +5.2004265e+02 </wgt>
<wgt id='3'> +5.0481800e+02 </wgt>
<wgt id='4'> +6.6156404e+02 </wgt>
<wgt id='5'> +4.7461372e+02 </wgt>
<wgt id='6'> +6.0716476e+02 </wgt>
<wgt id='7'> +4.7550769e+02 </wgt>
<wgt id='8'> +4.6170688e+02 </wgt>
<wgt id='9'> +6.0716476e+02 </wgt>
<wgt id='10'> +4.3432774e+02 </wgt>
<wgt id='11'> +5.5531330e+02 </wgt>
<wgt id='12'> +4.3586673e+02 </wgt>
<wgt id='13'> +4.2334379e+02 </wgt>
<wgt id='14'> +5.5531330e+02 </wgt>
<wgt id='15'> +3.9849500e+02 </wgt>
<wgt id='16'> +5.5004746e+02 </wgt>
<wgt id='17'> +4.4054939e+02 </wgt>
<wgt id='18'> +4.2831407e+02 </wgt>
<wgt id='19'> +5.5004746e+02 </wgt>
<wgt id='20'> +4.0395543e+02 </wgt>
<wgt id='21'> +4.0282199e+02 </wgt>
<wgt id='22'> +3.9173634e+02 </wgt>
<wgt id='23'> +5.0481800e+02 </wgt>
<wgt id='24'> +3.6966703e+02 </wgt>
<wgt id='25'> +4.6170688e+02 </wgt>
<wgt id='26'> +3.6924052e+02 </wgt>
<wgt id='27'> +3.5918708e+02 </wgt>
<wgt id='28'> +4.6170688e+02 </wgt>
<wgt id='29'> +3.3916891e+02 </wgt>
<wgt id='30'> +4.6668912e+02 </wgt>
<wgt id='31'> +3.7798320e+02 </wgt>
<wgt id='32'> +3.6796787e+02 </wgt>
<wgt id='33'> +4.6668912e+02 </wgt>
<wgt id='34'> +3.4797698e+02 </wgt>
<wgt id='35'> +4.2831407e+02 </wgt>
<wgt id='36'> +3.4561379e+02 </wgt>
<wgt id='37'> +3.3654367e+02 </wgt>
<wgt id='38'> +4.2831407e+02 </wgt>
<wgt id='39'> +3.1844012e+02 </wgt>
<wgt id='40'> +3.9173634e+02 </wgt>
<wgt id='41'> +3.1680152e+02 </wgt>
<wgt id='42'> +3.0858035e+02 </wgt>
<wgt id='43'> +3.9173634e+02 </wgt>
<wgt id='44'> +2.9216830e+02 </wgt>
<wgt id='45'> +5.0481800e+02 </wgt>
<wgt id='46'> +5.1596497e+02 </wgt>
<wgt id='47'> +5.2867266e+02 </wgt>
<wgt id='48'> +5.1304673e+02 </wgt>
<wgt id='49'> +5.0200773e+02 </wgt>
<wgt id='50'> +6.1875405e+02 </wgt>
<wgt id='51'> +4.9489049e+02 </wgt>
<wgt id='52'> +5.0418211e+02 </wgt>
<wgt id='53'> +5.0187381e+02 </wgt>
<wgt id='54'> +5.0840332e+02 </wgt>
<wgt id='55'> +4.5250426e+02 </wgt>
<wgt id='56'> +4.5818765e+02 </wgt>
<wgt id='57'> +4.9275480e+02 </wgt>
<wgt id='58'> +4.9702745e+02 </wgt>
<wgt id='59'> +5.1085893e+02 </wgt>
<wgt id='60'> +4.9583134e+02 </wgt>
<wgt id='61'> +4.6704665e+02 </wgt>
<wgt id='62'> +4.9972628e+02 </wgt>
<wgt id='63'> +5.0550365e+02 </wgt>
<wgt id='64'> +4.9024921e+02 </wgt>
<wgt id='65'> +5.9015551e+02 </wgt>
<wgt id='66'> +4.9566337e+02 </wgt>
<wgt id='67'> +5.0915220e+02 </wgt>
<wgt id='68'> +5.5499828e+02 </wgt>
<wgt id='69'> +5.0686666e+02 </wgt>
<wgt id='70'> +4.9499874e+02 </wgt>
<wgt id='71'> +5.1323184e+02 </wgt>
<wgt id='72'> +4.7188880e+02 </wgt>
<wgt id='73'> +4.9195478e+02 </wgt>
<wgt id='74'> +5.3262469e+02 </wgt>
<wgt id='75'> +5.1915803e+02 </wgt>
<wgt id='76'> +4.8845244e+02 </wgt>
<wgt id='77'> +4.9326646e+02 </wgt>
<wgt id='78'> +4.9125920e+02 </wgt>
<wgt id='79'> +4.9236306e+02 </wgt>
<wgt id='80'> +4.9528983e+02 </wgt>
<wgt id='81'> +4.9169466e+02 </wgt>
<wgt id='82'> +5.1022299e+02 </wgt>
<wgt id='83'> +5.2024143e+02 </wgt>
<wgt id='84'> +5.5867951e+02 </wgt>
<wgt id='85'> +5.2893852e+02 </wgt>
<wgt id='86'> +5.0878914e+02 </wgt>
<wgt id='87'> +5.0871138e+02 </wgt>
<wgt id='88'> +5.1607536e+02 </wgt>
<wgt id='89'> +5.2015935e+02 </wgt>
<wgt id='90'> +5.1423718e+02 </wgt>
<wgt id='91'> +5.3166949e+02 </wgt>
<wgt id='92'> +4.4618834e+02 </wgt>
<wgt id='93'> +5.0254955e+02 </wgt>
<wgt id='94'> +4.9340898e+02 </wgt>
<wgt id='95'> +4.8125532e+02 </wgt>
<wgt id='96'> +5.5851497e+02 </wgt>
<wgt id='97'> +5.0490744e+02 </wgt>
<wgt id='98'> +4.8568588e+02 </wgt>
<wgt id='99'> +4.8410669e+02 </wgt>
<wgt id='100'> +4.8019178e+02 </wgt>
<wgt id='101'> +5.5416755e+02 </wgt>
<wgt id='102'> +5.1132911e+02 </wgt>
<wgt id='103'> +5.5554539e+02 </wgt>
<wgt id='104'> +5.1058730e+02 </wgt>
<wgt id='105'> +5.1705999e+02 </wgt>
<wgt id='106'> +4.4794913e+02 </wgt>
<wgt id='107'> +4.8001875e+02 </wgt>
<wgt id='108'> +4.3621472e+02 </wgt>
<wgt id='109'> +4.6442023e+02 </wgt>
<wgt id='110'> +5.0119056e+02 </wgt>
<wgt id='111'> +4.8562129e+02 </wgt>
<wgt id='112'> +4.7224009e+02 </wgt>
<wgt id='113'> +4.5648224e+02 </wgt>
<wgt id='114'> +4.8592478e+02 </wgt>
<wgt id='115'> +4.8558115e+02 </wgt>
<wgt id='116'> +5.2184445e+02 </wgt>
<wgt id='117'> +5.0399050e+02 </wgt>
<wgt id='118'> +5.3226883e+02 </wgt>
<wgt id='119'> +4.8121838e+02 </wgt>
<wgt id='120'> +4.9075459e+02 </wgt>
<wgt id='121'> +4.8559190e+02 </wgt>
<wgt id='122'> +4.9629401e+02 </wgt>
<wgt id='123'> +5.1472819e+02 </wgt>
<wgt id='124'> +5.5858085e+02 </wgt>
<wgt id='125'> +5.5891758e+02 </wgt>
<wgt id='126'> +5.2994181e+02 </wgt>
<wgt id='127'> +5.2442637e+02 </wgt>
<wgt id='128'> +4.5912013e+02 </wgt>
<wgt id='129'> +5.7565338e+02 </wgt>
<wgt id='130'> +5.1098835e+02 </wgt>
<wgt id='131'> +5.3762711e+02 </wgt>
<wgt id='132'> +5.1341901e+02 </wgt>
<wgt id='133'> +5.1444450e+02 </wgt>
<wgt id='134'> +4.7926192e+02 </wgt>
<wgt id='135'> +5.1664564e+02 </wgt>
<wgt id='136'> +4.9661148e+02 </wgt>
<wgt id='137'> +4.8139990e+02 </wgt>
<wgt id='138'> +4.7439255e+02 </wgt>
<wgt id='139'> +5.2061608e+02 </wgt>
<wgt id='140'> +5.2804087e+02 </wgt>
<wgt id='141'> +5.0911875e+02 </wgt>
<wgt id='142'> +4.9018080e+02 </wgt>
<wgt id='143'> +5.0779674e+02 </wgt>
<wgt id='144'> +4.9527642e+02 </wgt>
<wgt id='145'> +5.0577505e+02 </wgt>
</rwgt>
</event>
<event>
 4      1 +5.0481800e+02 3.23373600e+02 7.54677100e-03 1.07410700e-01
       21 -1    0    0  503  502 +0.0000000000e+00 +0.0000000000e+00 +4.9766395213e+01 4.9766395213e+01 0.0000000000e+00 0.0000e+00 -1.0000e+00
       21 -1    0    0  501  503 -0.0000000000e+00 -0.0000000000e+00 -2.1268462018e+03 2.1268462018e+03 0.0000000000e+00 0.0000e+00 1.0000e+00
        6  1    1    2  501    0 -2.1628351726e+02 -1.6692193875e+02 -9.1909548231e+02 9.7432386765e+02 1.7300000000e+02 0.0000e+00 -1.0000e+00
       -6  1    1    2    0  502 +2.1628351726e+02 +1.6692193875e+02 -1.1579843243e+03 1.2022887294e+03 1.7300000000e+02 0.0000e+00 1.0000e+00
<mgrwt>
<rscale>  2 0.32337361E+03</rscale>
<asrwt>0</asrwt>
<pdfrwt beam="1">  1       21 0.76563712E-02 0.32337361E+03</pdfrwt>
<pdfrwt beam="2">  1       21 0.32720699E+00 0.32337361E+03</pdfrwt>
<totfact> 0.27098761E+03</totfact>
</mgrwt>
<rwgt>
<wgt id='1'> +7.1536234e+02 </wgt>
<wgt id='2'> +5.4457695e+02 </wgt>
<wgt id='3'> +5.0481800e+02 </wgt>
<wgt id='4'> +7.1536233e+02 </wgt>
<wgt id='5'> +5.0334056e+02 </wgt>
<wgt id='6'> +6.0315396e+02 </wgt>
<wgt id='7'> +4.6219705e+02 </wgt>
<wgt id='8'> +4.2949634e+02 </wgt>
<wgt id='9'> +6.0315396e+02 </wgt>
<wgt id='10'> +4.2827994e+02 </wgt>
<wgt id='11'> +5.1316003e+02 </wgt>
<wgt id='12'> +3.9645937e+02 </wgt>
<wgt id='13'> +3.6924976e+02 </wgt>
<wgt id='14'> +5.1316003e+02 </wgt>
<wgt id='15'> +3.6823600e+02 </wgt>
<wgt id='16'> +5.9873234e+02 </wgt>
<wgt id='17'> +4.6189819e+02 </wgt>
<wgt id='18'> +4.2945413e+02 </wgt>
<wgt id='19'> +5.9873234e+02 </wgt>
<wgt id='20'> +4.2824624e+02 </wgt>
<wgt id='21'> +3.9202537e+02 </wgt>
<wgt id='22'> +3.6537718e+02 </wgt>
<wgt id='23'> +5.0481800e+02 </wgt>
<wgt id='24'> +3.6438406e+02 </wgt>
<wgt id='25'> +4.2949634e+02 </wgt>
<wgt id='26'> +3.3626811e+02 </wgt>
<wgt id='27'> +3.1412476e+02 </wgt>
<wgt id='28'> +4.2949634e+02 </wgt>
<wgt id='29'> +3.1329819e+02 </wgt>
<wgt id='30'> +5.0934808e+02 </wgt>
<wgt id='31'> +3.9671152e+02 </wgt>
<wgt id='32'> +3.6978917e+02 </wgt>
<wgt id='33'> +5.0934807e+02 </wgt>
<wgt id='34'> +3.6878499e+02 </wgt>
<wgt id='35'> +4.2945413e+02 </wgt>
<wgt id='36'> +3.3669969e+02 </wgt>
<wgt id='37'> +3.1461456e+02 </wgt>
<wgt id='38'> +4.2945413e+02 </wgt>
<wgt id='39'> +3.1378996e+02 </wgt>
<wgt id='40'> +3.6537718e+02 </wgt>
<wgt id='41'> +2.8881134e+02 </wgt>
<wgt id='42'> +2.7048275e+02 </wgt>
<wgt id='43'> +3.6537718e+02 </wgt>
<wgt id='44'> +2.6979728e+02 </wgt>
<wgt id='45'> +5.0481800e+02 </wgt>
<wgt id='46'> +5.0926313e+02 </wgt>
<wgt id='47'> +6.1367092e+02 </wgt>
<wgt id='48'> +5.0557857e+02 </wgt>
<wgt id='49'> +4.3740164e+02 </wgt>
<wgt id='50'> +6.2325137e+02 </wgt>
<wgt id='51'> +4.8839153e+02 </wgt>
<wgt id='52'> +4.0172182e+02 </wgt>
<wgt id='53'> +5.7486100e+02 </wgt>
<wgt id='54'> +5.3310045e+02 </wgt>
<wgt id='55'> +6.3242319e+02 </wgt>
<wgt id='56'> +4.8691499e+02 </wgt>
<wgt id='57'> +5.5668141e+02 </wgt>
<wgt id='58'> +4.1476791e+02 </wgt>
<wgt id='59'> +5.4782618e+02 </wgt>
<wgt id='60'> +4.8038868e+02 </wgt>
<wgt id='61'> +3.8173729e+02 </wgt>
<wgt id='62'> +4.2759178e+02 </wgt>
<wgt id='63'> +5.3652379e+02 </wgt>
<wgt id='64'> +5.0555885e+02 </wgt>
<wgt id='65'> +3.8265553e+02 </wgt>
<wgt id='66'> +5.2047881e+02 </wgt>
<wgt id='67'> +4.8782729e+02 </wgt>
<wgt id='68'> +7.7910733e+02 </wgt>
<wgt id='69'> +6.1080071e+02 </wgt>
<wgt id='70'> +6.9416986e+02 </wgt>
<wgt id='71'> +4.2811159e+02 </wgt>
<wgt id='72'> +4.0094678e+02 </wgt>
<wgt id='73'> +4.2530867e+02 </wgt>
<wgt id='74'> +6.9285604e+02 </wgt>
<wgt id='75'> +6.5330576e+02 </wgt>
<wgt id='76'> +5.0520624e+02 </wgt>
<wgt id='77'> +4.2348862e+02 </wgt>
<wgt id='78'> +4.0657635e+02 </wgt>
<wgt id='79'> +5.8136440e+02 </wgt>
<wgt id='80'> +3.6848752e+02 </wgt>
<wgt id='81'> +5.6304234e+02 </wgt>
<wgt id='82'> +4.9199671e+02 </wgt>
<wgt id='83'> +5.0862811e+02 </wgt>
<wgt id='84'> +4.2709842e+02 </wgt>
<wgt id='85'> +4.1604125e+02 </wgt>
<wgt id='86'> +5.6136391e+02 </wgt>
<wgt id='87'> +4.6468477e+02 </wgt>
<wgt id='88'> +5.5493030e+02 </wgt>
<wgt id='89'> +3.0102525e+02 </wgt>
<wgt id='90'> +3.9843246e+02 </wgt>
<wgt id='91'> +3.6728286e+02 </wgt>
<wgt id='92'> +4.6909978e+02 </wgt>
<wgt id='93'> +5.4015448e+02 </wgt>
<wgt id='94'> +4.2351025e+02 </wgt>
<wgt id='95'> +5.1917072e+02 </wgt>
<wgt id='96'> +4.9322909e+02 </wgt>
<wgt id='97'> +4.1738241e+02 </wgt>
<wgt id='98'> +6.3873042e+02 </wgt>
<wgt id='99'> +3.7082023e+02 </wgt>
<wgt id='100'> +3.1336174e+02 </wgt>
<wgt id='101'> +6.2746259e+02 </wgt>
<wgt id='102'> +6.1121843e+02 </wgt>
<wgt id='103'> +4.1925887e+02 </wgt>
<wgt id='104'> +5.7559054e+02 </wgt>
<wgt id='105'> +5.1963976e+02 </wgt>
<wgt id='106'> +5.1808008e+02 </wgt>
<wgt id='107'> +5.3239387e+02 </wgt>
<wgt id='108'> +4.5863653e+02 </wgt>
<wgt id='109'> +5.1057552e+02 </wgt>
<wgt id='110'> +3.8147788e+02 </wgt>
<wgt id='111'> +4.6872589e+02 </wgt>
<wgt id='112'> +5.1793573e+02 </wgt>
<wgt id='113'> +6.3479644e+02 </wgt>
<wgt id='114'> +4.4408596e+02 </wgt>
<wgt id='115'> +4.9105947e+02 </wgt>
<wgt id='116'> +5.9365174e+02 </wgt>
<wgt id='117'> +5.2896956e+02 </wgt>
<wgt id='118'> +4.9969074e+02 </wgt>
<wgt id='119'> +5.3842290e+02 </wgt>
<wgt id='120'> +4.8495204e+02 </wgt>
<wgt id='121'> +4.5109344e+02 </wgt>
<wgt id='122'> +4.6481774e+02 </wgt>
<wgt id='123'> +4.3946305e+02 </wgt>
<wgt id='124'> +5.6813387e+02 </wgt>
<wgt id='125'> +7.6689971e+02 </wgt>
<wgt id='126'> +4.7462762e+02 </wgt>
<wgt id='127'> +4.5107085e+02 </wgt>
<wgt id='128'> +5.0679841e+02 </wgt>
<wgt id='129'> +4.7065214e+02 </wgt>
<wgt id='130'> +4.7536051e+02 </wgt>
<wgt id='131'> +4.2215763e+02 </wgt>
<wgt id='132'> +5.3010252e+02 </wgt>
<wgt id='133'> +5.6124338e+02 </wgt>
<wgt id='134'> +5.8223721e+02 </wgt>
<wgt id='135'> +4.7107299e+02 </wgt>
<wgt id='136'> +6.3122770e+02 </wgt>
<wgt id='137'> +6.1406986e+02 </wgt>
<wgt id='138'> +5.8306896e+02 </wgt>
<wgt id='139'> +5.3321906e+02 </wgt>
<wgt id='140'> +4.7957031e+02 </wgt>
<wgt id='141'> +6.9891804e+02 </wgt>
<wgt id='142'> +2.2073942e+02 </wgt>
<wgt id='143'> +5.1387034e+02 </wgt>
<wgt id='144'> +4.2476126e+02 </wgt>
<wgt id='145'> +4.5060109e+02 </wgt>
</rwgt>
</event>
<event>
 4      1 +5.0481800e+02 2.00802900e+02 7.54677100e-03 1.14906300e-01
       21 -1    0    0  501  502 +0.0000000000e+00 +0.0000000000e+00 +6.8235885436e+02 6.8235885436e+02 0.0000000000e+00 0.0000e+00 -1.0000e+00
       21 -1    0    0  502  503 -0.0000000000e+00 -0.0000000000e+00 -1.0215049436e+02 1.0215049436e+02 0.0000000000e+00 0.0000e+00 -1.0000e+00
        6  1    1    2  501    0 -9.8146034746e+01 +2.7571056646e+01 +5.4477451609e+02 5.8060406534e+02 1.7300000000e+02 0.0000e+00 -1.0000e+00
       -6  1    1    2    0  503 +9.8146034746e+01 -2.7571056646e+01 +3.5433843906e+01 2.0390528339e+02 1.7300000000e+02 0.0000e+00 -1.0000e+00
<mgrwt>
<rscale>  2 0.20080291E+03</rscale>
<asrwt>0</asrwt>
<pdfrwt beam="1">  1       21 0.10497828E+00 0.20080291E+03</pdfrwt>
<pdfrwt beam="2">  1       21 0.15715461E-01 0.20080291E+03</pdfrwt>
<totfact> 0.26210867E+04</totfact>
</mgrwt>
<rwgt>
<wgt id='1'> +6.6162271e+02 </wgt>
<wgt id='2'> +5.6487799e+02 </wgt>
<wgt id='3'> +5.0481800e+02 </wgt>
<wgt id='4'> +6.6162271e+02 </wgt>
<wgt id='5'> +4.5582159e+02 </wgt>
<wgt id='6'> +6.1815657e+02 </wgt>
<wgt id='7'> +5.2189094e+02 </wgt>
<wgt id='8'> +4.6466577e+02 </wgt>
<wgt id='9'> +6.1815657e+02 </wgt>
<wgt id='10'> +4.1978157e+02 </wgt>
<wgt id='11'> +5.6898961e+02 </wgt>
<wgt id='12'> +4.8072964e+02 </wgt>
<wgt id='13'> +4.2827133e+02 </wgt>
<wgt id='14'> +5.6898962e+02 </wgt>
<wgt id='15'> +3.8715423e+02 </wgt>
<wgt id='16'> +5.4031465e+02 </wgt>
<wgt id='17'> +4.7113409e+02 </wgt>
<wgt id='18'> +4.2545411e+02 </wgt>
<wgt id='19'> +5.4031466e+02 </wgt>
<wgt id='20'> +3.8625598e+02 </wgt>
<wgt id='21'> +4.3528093e+02 </wgt>
<wgt id='22'> +3.9161433e+02 </wgt>
<wgt id='23'> +5.0481800e+02 </wgt>
<wgt id='24'> +3.5571624e+02 </wgt>
<wgt id='25'> +4.6466577e+02 </wgt>
<wgt id='26'> +4.0095053e+02 </wgt>
<wgt id='27'> +3.6094156e+02 </wgt>
<wgt id='28'> +4.6466577e+02 </wgt>
<wgt id='29'> +3.2806835e+02 </wgt>
<wgt id='30'> +4.5537023e+02 </wgt>
<wgt id='31'> +4.0021356e+02 </wgt>
<wgt id='32'> +3.6338496e+02 </wgt>
<wgt id='33'> +4.5537023e+02 </wgt>
<wgt id='34'> +3.3148125e+02 </wgt>
<wgt id='35'> +4.2545411e+02 </wgt>
<wgt id='36'> +3.6975743e+02 </wgt>
<wgt id='37'> +3.3448203e+02 </wgt>
<wgt id='38'> +4.2545411e+02 </wgt>
<wgt id='39'> +3.0527233e+02 </wgt>
<wgt id='40'> +3.9161433e+02 </wgt>
<wgt id='41'> +3.4059483e+02 </wgt>
<wgt id='42'> +3.0828409e+02 </wgt>
<wgt id='43'> +3.9161433e+02 </wgt>
<wgt id='44'> +2.8154517e+02 </wgt>
<wgt id='45'> +5.0481800e+02 </wgt>
<wgt id='46'> +5.1608725e+02 </wgt>
<wgt id='47'> +5.2126969e+02 </wgt>
<wgt id='48'> +5.0817057e+02 </wgt>
<wgt id='49'> +4.9455606e+02 </wgt>
<wgt id='50'> +6.0441104e+02 </wgt>
<wgt id='51'> +4.9083970e+02 </wgt>
<wgt id='52'> +5.0200755e+02 </wgt>
<wgt id='53'> +4.9923849e+02 </wgt>
<wgt id='54'> +5.1476955e+02 </wgt>
<wgt id='55'> +4.8077189e+02 </wgt>
<wgt id='56'> +4.6130616e+02 </wgt>
<wgt id='57'> +5.0795641e+02 </wgt>
<wgt id='58'> +4.9124556e+02 </wgt>
<wgt id='59'> +5.2434020e+02 </wgt>
<wgt id='60'> +5.0222987e+02 </wgt>
<wgt id='61'> +4.4486551e+02 </wgt>
<wgt id='62'> +4.9325318e+02 </wgt>
<wgt id='63'> +5.0860280e+02 </wgt>
<wgt id='64'> +4.9577786e+02 </wgt>
<wgt id='65'> +5.5883284e+02 </wgt>
<wgt id='66'> +4.9681398e+02 </wgt>
<wgt id='67'> +5.0770356e+02 </wgt>
<wgt id='68'> +5.5967368e+02 </wgt>
<wgt id='69'> +5.0711598e+02 </wgt>
<wgt id='70'> +5.0026770e+02 </wgt>
<wgt id='71'> +5.0733808e+02 </wgt>
<wgt id='72'> +4.8265378e+02 </wgt>
<wgt id='73'> +4.8590782e+02 </wgt>
<wgt id='74'> +5.3674684e+02 </wgt>
<wgt id='75'> +5.1842943e+02 </wgt>
<wgt id='76'> +4.9918461e+02 </wgt>
<wgt id='77'> +4.9339555e+02 </wgt>
<wgt id='78'> +4.7979055e+02 </wgt>
<wgt id='79'> +5.0054017e+02 </wgt>
<wgt id='80'> +4.8823585e+02 </wgt>
<wgt id='81'> +4.9639661e+02 </wgt>
<wgt id='82'> +4.9690722e+02 </wgt>
<wgt id='83'> +5.1086436e+02 </wgt>
<wgt id='84'> +5.4084486e+02 </wgt>
<wgt id='85'> +5.1123726e+02 </wgt>
<wgt id='86'> +5.0900646e+02 </wgt>
<wgt id='87'> +5.0766106e+02 </wgt>
<wgt id='88'> +5.0712985e+02 </wgt>
<wgt id='89'> +5.0624951e+02 </wgt>
<wgt id='90'> +5.1156017e+02 </wgt>
<wgt id='91'> +5.1273256e+02 </wgt>
<wgt id='92'> +4.5992439e+02 </wgt>
<wgt id='93'> +5.0268783e+02 </wgt>
<wgt id='94'> +4.8844452e+02 </wgt>
<wgt id='95'> +4.9998051e+02 </wgt>
<wgt id='96'> +5.4131402e+02 </wgt>
<wgt id='97'> +4.9661694e+02 </wgt>
<wgt id='98'> +4.9656901e+02 </wgt>
<wgt id='99'> +4.7433376e+02 </wgt>
<wgt id='100'> +4.6423948e+02 </wgt>
<wgt id='101'> +5.5969184e+02 </wgt>
<wgt id='102'> +5.2213767e+02 </wgt>
<wgt id='103'> +5.4026723e+02 </wgt>
<wgt id='104'> +5.1205786e+02 </wgt>
<wgt id='105'> +5.2074932e+02 </wgt>
<wgt id='106'> +4.6107307e+02 </wgt>
<wgt id='107'> +4.8095436e+02 </wgt>
<wgt id='108'> +4.4649377e+02 </wgt>
<wgt id='109'> +4.7647793e+02 </wgt>
<wgt id='110'> +4.9755405e+02 </wgt>
<wgt id='111'> +4.9098615e+02 </wgt>
<wgt id='112'> +4.8156190e+02 </wgt>
<wgt id='113'> +4.7081622e+02 </wgt>
<wgt id='114'> +4.9689474e+02 </wgt>
<wgt id='115'> +4.7891928e+02 </wgt>
<wgt id='116'> +5.2465931e+02 </wgt>
<wgt id='117'> +4.9929361e+02 </wgt>
<wgt id='118'> +5.2925923e+02 </wgt>
<wgt id='119'> +4.9634770e+02 </wgt>
<wgt id='120'> +4.9513027e+02 </wgt>
<wgt id='121'> +4.9541057e+02 </wgt>
<wgt id='122'> +4.9862582e+02 </wgt>
<wgt id='123'> +5.0716430e+02 </wgt>
<wgt id='124'> +5.5996867e+02 </wgt>
<wgt id='125'> +5.6828968e+02 </wgt>
<wgt id='126'> +5.1911121e+02 </wgt>
<wgt id='127'> +5.1586303e+02 </wgt>
<wgt id='128'> +4.6062860e+02 </wgt>
<wgt id='129'> +5.6320523e+02 </wgt>
<wgt id='130'> +5.0065879e+02 </wgt>
<wgt id='131'> +5.2259427e+02 </wgt>
<wgt id='132'> +5.3019762e+02 </wgt>
<wgt id='133'> +5.2083692e+02 </wgt>
<wgt id='134'> +4.9238175e+02 </wgt>
<wgt id='135'> +5.0986913e+02 </wgt>
<wgt id='136'> +5.2474082e+02 </wgt>
<wgt id='137'> +4.8622882e+02 </wgt>
<wgt id='138'> +4.7725571e+02 </wgt>
<wgt id='139'> +5.2008136e+02 </wgt>
<wgt id='140'> +5.1827014e+02 </wgt>
<wgt id='141'> +5.1719022e+02 </wgt>
<wgt id='142'> +4.6963111e+02 </wgt>
<wgt id='143'> +5.1424754e+02 </wgt>
<wgt id='144'> +4.9136346e+02 </wgt>
<wgt id='145'> +4.9828590e+02 </wgt>
</rwgt>
</event>
<event>
 4      1 +5.0481800e+02 1.87909900e+02 7.54677100e-03 1.16036000e-01
       -1 -1    0    0    0  501 -0.0000000000e+00 +0.0000000000e+00 +2.9964789600e+02 2.9964789600e+02 0.0000000000e+00 0.0000e+00 -1.0000e+00
        1 -1    0    0  502    0 +0.0000000000e+00 -0.0000000000e+00 -1.2131473451e+02 1.2131473451e+02 0.0000000000e+00 0.0000e+00 1.0000e+00
        6  1    1    2  502    0 +8.3008525720e+00 -7.2884914938e+01 +5.3537915604e+01 1.9538787932e+02 1.7300000000e+02 0.0000e+00 -1.0000e+00
       -6  1    1    2    0  501 -8.3008525720e+00 +7.2884914938e+01 +1.2479524589e+02 2.2557475119e+02 1.7300000000e+02 0.0000e+00 -1.0000e+00
<mgrwt>
<rscale>  2 0.18790986E+03</rscale>
<asrwt>0</asrwt>
<pdfrwt beam="2">  1        1 0.18663805E-01 0.18790986E+03</pdfrwt>
<pdfrwt beam="1">  1       -1 0.46099676E-01 0.18790986E+03</pdfrwt>
<totfact> 0.13225685E+03</totfact>
</mgrwt>
<rwgt>
<wgt id='1'> +6.0772803e+02 </wgt>
<wgt id='2'> +5.4885339e+02 </wgt>
<wgt id='3'> +5.0481800e+02 </wgt>
<wgt id='4'> +6.0772803e+02 </wgt>
<wgt id='5'> +5.0303427e+02 </wgt>
<wgt id='6'> +6.2020167e+02 </wgt>
<wgt id='7'> +5.5781483e+02 </wgt>
<wgt id='8'> +5.1141122e+02 </wgt>
<wgt id='9'> +6.2020167e+02 </wgt>
<wgt id='10'> +5.0953394e+02 </wgt>
<wgt id='11'> +6.2830187e+02 </wgt>
<wgt id='12'> +5.6325276e+02 </wgt>
<wgt id='13'> +5.1511324e+02 </wgt>
<wgt id='14'> +6.2830187e+02 </wgt>
<wgt id='15'> +5.1316861e+02 </wgt>
<wgt id='16'> +4.9466499e+02 </wgt>
<wgt id='17'> +4.5554367e+02 </wgt>
<wgt id='18'> +4.2470558e+02 </wgt>
<wgt id='19'> +4.9466499e+02 </wgt>
<wgt id='20'> +4.2338187e+02 </wgt>
<wgt id='21'> +4.6298160e+02 </wgt>
<wgt id='22'> +4.3025249e+02 </wgt>
<wgt id='23'> +5.0481800e+02 </wgt>
<wgt id='24'> +4.2885236e+02 </wgt>
<wgt id='25'> +5.1141122e+02 </wgt>
<wgt id='26'> +4.6749503e+02 </wgt>
<wgt id='27'> +4.3336701e+02 </wgt>
<wgt id='28'> +5.1141122e+02 </wgt>
<wgt id='29'> +4.3191150e+02 </wgt>
<wgt id='30'> +4.1616381e+02 </wgt>
<wgt id='31'> +3.8625144e+02 </wgt>
<wgt id='32'> +3.6231018e+02 </wgt>
<wgt id='33'> +4.1616381e+02 </wgt>
<wgt id='34'> +3.6127625e+02 </wgt>
<wgt id='35'> +4.2470558e+02 </wgt>
<wgt id='36'> +3.9255799e+02 </wgt>
<wgt id='37'> +3.6704216e+02 </wgt>
<wgt id='38'> +4.2470558e+02 </wgt>
<wgt id='39'> +3.6594427e+02 </wgt>
<wgt id='40'> +4.3025249e+02 </wgt>
<wgt id='41'> +3.9638489e+02 </wgt>
<wgt id='42'> +3.6969912e+02 </wgt>
<wgt id='43'> +4.3025249e+02 </wgt>
<wgt id='44'> +3.6855467e+02 </wgt>
<wgt id='45'> +5.0481800e+02 </wgt>
<wgt id='46'> +5.1914725e+02 </wgt>
<wgt id='47'> +5.0442694e+02 </wgt>
<wgt id='48'> +4.7567210e+02 </wgt>
<wgt id='49'> +4.9284622e+02 </wgt>
<wgt id='50'> +4.5748029e+02 </wgt>
<wgt id='51'> +4.6870791e+02 </wgt>
<wgt id='52'> +5.4271870e+02 </wgt>
<wgt id='53'> +5.3541961e+02 </wgt>
<wgt id='54'> +4.9686706e+02 </wgt>
<wgt id='55'> +4.9384725e+02 </wgt>
<wgt id='56'> +5.2553304e+02 </wgt>
<wgt id='57'> +4.4973855e+02 </wgt>
<wgt id='58'> +5.6607672e+02 </wgt>
<wgt id='59'> +4.5197649e+02 </wgt>
<wgt id='60'> +4.9646507e+02 </wgt>
<wgt id='61'> +5.1269431e+02 </wgt>
<wgt id='62'> +5.3544535e+02 </wgt>
<wgt id='63'> +5.4582443e+02 </wgt>
<wgt id='64'> +5.0049556e+02 </wgt>
<wgt id='65'> +4.7212932e+02 </wgt>
<wgt id='66'> +4.7647992e+02 </wgt>
<wgt id='67'> +5.3076372e+02 </wgt>
<wgt id='68'> +4.5006407e+02 </wgt>
<wgt id='69'> +4.7909129e+02 </wgt>
<wgt id='70'> +5.5302313e+02 </wgt>
<wgt id='71'> +4.8422870e+02 </wgt>
<wgt id='72'> +4.7320387e+02 </wgt>
<wgt id='73'> +5.2390288e+02 </wgt>
<wgt id='74'> +4.8457872e+02 </wgt>
<wgt id='75'> +4.9692093e+02 </wgt>
<wgt id='76'> +5.2217584e+02 </wgt>
<wgt id='77'> +5.2746646e+02 </wgt>
<wgt id='78'> +4.9343920e+02 </wgt>
<wgt id='79'> +5.3400551e+02 </wgt>
<wgt id='80'> +5.2453312e+02 </wgt>
<wgt id='81'> +5.4672411e+02 </wgt>
<wgt id='82'> +4.8846875e+02 </wgt>
<wgt id='83'> +4.5491969e+02 </wgt>
<wgt id='84'> +5.0559702e+02 </wgt>
<wgt id='85'> +4.9739776e+02 </wgt>
<wgt id='86'> +5.4413747e+02 </wgt>
<wgt id='87'> +5.3121477e+02 </wgt>
<wgt id='88'> +4.8443932e+02 </wgt>
<wgt id='89'> +5.8690830e+02 </wgt>
<wgt id='90'> +5.8085301e+02 </wgt>
<wgt id='91'> +4.4888662e+02 </wgt>
<wgt id='92'> +4.9196034e+02 </wgt>
<wgt id='93'> +5.2888259e+02 </wgt>
<wgt id='94'> +5.3756563e+02 </wgt>
<wgt id='95'> +4.8649879e+02 </wgt>
<wgt id='96'> +5.0090273e+02 </wgt>
<wgt id='97'> +5.0437461e+02 </wgt>
<wgt id='98'> +5.0241328e+02 </wgt>
<wgt id='99'> +5.7792637e+02 </wgt>
<wgt id='100'> +4.6764731e+02 </wgt>
<wgt id='101'> +4.6617859e+02 </wgt>
<wgt id='102'> +5.1238207e+02 </wgt>
<wgt id='103'> +5.0509787e+02 </wgt>
<wgt id='104'> +4.4730483e+02 </wgt>
<wgt id='105'> +5.0666055e+02 </wgt>
<wgt id='106'> +5.2105976e+02 </wgt>
<wgt id='107'> +4.9100055e+02 </wgt>
<wgt id='108'> +5.2040659e+02 </wgt>
<wgt id='109'> +4.7638200e+02 </wgt>
<wgt id='110'> +5.5293638e+02 </wgt>
<wgt id='111'> +5.0850304e+02 </wgt>
<wgt id='112'> +4.9443076e+02 </wgt>
<wgt id='113'> +5.2325616e+02 </wgt>
<wgt id='114'> +4.8194641e+02 </wgt>
<wgt id='115'> +4.7745472e+02 </wgt>
<wgt id='116'> +4.7654320e+02 </wgt>
<wgt id='117'> +4.7367472e+02 </wgt>
<wgt id='118'> +4.9970062e+02 </wgt>
<wgt id='119'> +5.3058802e+02 </wgt>
<wgt id='120'> +5.0394197e+02 </wgt>
<wgt id='121'> +4.8507856e+02 </wgt>
<wgt id='122'> +4.9565320e+02 </wgt>
<wgt id='123'> +5.1766129e+02 </wgt>
<wgt id='124'> +4.6965964e+02 </wgt>
<wgt id='125'> +4.4463990e+02 </wgt>
<wgt id='126'> +5.3627396e+02 </wgt>
<wgt id='127'> +5.2274606e+02 </wgt>
<wgt id='128'> +4.9561647e+02 </wgt>
<wgt id='129'> +4.7650065e+02 </wgt>
<wgt id='130'> +4.6282494e+02 </wgt>
<wgt id='131'> +5.2637683e+02 </wgt>
<wgt id='132'> +4.8326665e+02 </wgt>
<wgt id='133'> +6.0290012e+02 </wgt>
<wgt id='134'> +4.6791372e+02 </wgt>
<wgt id='135'> +4.5277768e+02 </wgt>
<wgt id='136'> +5.4892263e+02 </wgt>
<wgt id='137'> +5.0383040e+02 </wgt>
<wgt id='138'> +4.9410215e+02 </wgt>
<wgt id='139'> +5.8735703e+02 </wgt>
<wgt id='140'> +4.8572679e+02 </wgt>
<wgt id='141'> +5.2087920e+02 </wgt>
<wgt id='142'> +5.1854694e+02 </wgt>
<wgt id='143'> +5.1516927e+02 </wgt>
<wgt id='144'> +5.0644676e+02 </wgt>
<wgt id='145'> +5.3215515e+02 </wgt>
</rwgt>
</event>
<event>
 4      1 +5.0481800e+02 1.86694200e+02 7.54677100e-03 1.16147700e-01
       21 -1    0    0  501  502 +0.0000000000e+00 +0.0000000000e+00 +1.2297293939e+03 1.2297293939e+03 0.0000000000e+00 0.0000e+00 1.0000e+00
       21 -1    0    0  502  503 -0.0000000000e+00 -0.0000000000e+00 -7.1936170369e+01 7.1936170369e+01 0.0000000000e+00 0.0000e+00 1.0000e+00
        6  1    1    2  501    0 +6.6777574530e+01 -2.1598560790e+01 +1.0855405790e+03 1.1014776852e+03 1.7300000000e+02 0.0000e+00 1.0000e+00
       -6  1    1    2    0  503 -6.6777574530e+01 +2.1598560790e+01 +7.2252644511e+01 2.0018787907e+02 1.7300000000e+02 0.0000e+00 1.0000e+00
<mgrwt>
<rscale>  2 0.18669425E+03</rscale>
<asrwt>0</asrwt>
<pdfrwt beam="1">  1       21 0.18918912E+00 0.18669425E+03</pdfrwt>
<pdfrwt beam="2">  1       21 0.11067104E-01 0.18669425E+03</pdfrwt>
<totfact> 0.10757477E+04</totfact>
</mgrwt>
<rwgt>
<wgt id='1'> +6.8436378e+02 </wgt>
<wgt id='2'> +6.4816352e+02 </wgt>
<wgt id='3'> +5.0481800e+02 </wgt>
<wgt id='4'> +6.8436379e+02 </wgt>
<wgt id='5'> +4.1611037e+02 </wgt>
<wgt id='6'> +6.2038538e+02 </wgt>
<wgt id='7'> +5.8604572e+02 </wgt>
<wgt id='8'> +4.5147792e+02 </wgt>
<wgt id='9'> +6.2038539e+02 </wgt>
<wgt id='10'> +3.7292693e+02 </wgt>
<wgt id='11'> +5.5483422e+02 </wgt>
<wgt id='12'> +5.2421898e+02 </wgt>
<wgt id='13'> +4.0512419e+02 </wgt>
<wgt id='14'> +5.5483422e+02 </wgt>
<wgt id='15'> +3.3552836e+02 </wgt>
<wgt id='16'> +5.5687830e+02 </wgt>
<wgt id='17'> +5.3072121e+02 </wgt>
<wgt id='18'> +4.2462472e+02 </wgt>
<wgt id='19'> +5.5687830e+02 </wgt>
<wgt id='20'> +3.5342803e+02 </wgt>
<wgt id='21'> +4.7985868e+02 </wgt>
<wgt id='22'> +3.7975802e+02 </wgt>
<wgt id='23'> +5.0481800e+02 </wgt>
<wgt id='24'> +3.1674969e+02 </wgt>
<wgt id='25'> +4.5147791e+02 </wgt>
<wgt id='26'> +4.2923448e+02 </wgt>
<wgt id='27'> +3.4076785e+02 </wgt>
<wgt id='28'> +4.5147792e+02 </wgt>
<wgt id='29'> +2.8498479e+02 </wgt>
<wgt id='30'> +4.6841494e+02 </wgt>
<wgt id='31'> +4.4773068e+02 </wgt>
<wgt id='32'> +3.6219847e+02 </wgt>
<wgt id='33'> +4.6841494e+02 </wgt>
<wgt id='34'> +3.0391137e+02 </wgt>
<wgt id='35'> +4.2462472e+02 </wgt>
<wgt id='36'> +4.0482168e+02 </wgt>
<wgt id='37'> +3.2392785e+02 </wgt>
<wgt id='38'> +4.2462472e+02 </wgt>
<wgt id='39'> +2.7237181e+02 </wgt>
<wgt id='40'> +3.7975802e+02 </wgt>
<wgt id='41'> +3.6211374e+02 </wgt>
<wgt id='42'> +2.9066983e+02 </wgt>
<wgt id='43'> +3.7975802e+02 </wgt>
<wgt id='44'> +2.4505730e+02 </wgt>
<wgt id='45'> +5.0481800e+02 </wgt>
<wgt id='46'> +5.1924092e+02 </wgt>
<wgt id='47'> +5.2430315e+02 </wgt>
<wgt id='48'> +5.0455159e+02 </wgt>
<wgt id='49'> +4.6797076e+02 </wgt>
<wgt id='50'> +6.0172399e+02 </wgt>
<wgt id='51'> +4.7583463e+02 </wgt>
<wgt id='52'> +4.7553008e+02 </wgt>
<wgt id='53'> +5.0619573e+02 </wgt>
<wgt id='54'> +5.3469147e+02 </wgt>
<wgt id='55'> +5.5190326e+02 </wgt>
<wgt id='56'> +4.7738898e+02 </wgt>
<wgt id='57'> +5.3357296e+02 </wgt>
<wgt id='58'> +4.5996527e+02 </wgt>
<wgt id='59'> +5.4660755e+02 </wgt>
<wgt id='60'> +5.0230884e+02 </wgt>
<wgt id='61'> +4.4471253e+02 </wgt>
<wgt id='62'> +4.6789546e+02 </wgt>
<wgt id='63'> +5.2959918e+02 </wgt>
<wgt id='64'> +5.0388654e+02 </wgt>
<wgt id='65'> +4.8012830e+02 </wgt>
<wgt id='66'> +5.0880038e+02 </wgt>
<wgt id='67'> +5.0824863e+02 </wgt>
<wgt id='68'> +6.0867113e+02 </wgt>
<wgt id='69'> +5.4194308e+02 </wgt>
<wgt id='70'> +5.3716657e+02 </wgt>
<wgt id='71'> +4.7532051e+02 </wgt>
<wgt id='72'> +4.6367289e+02 </wgt>
<wgt id='73'> +4.5845452e+02 </wgt>
<wgt id='74'> +5.7532160e+02 </wgt>
<wgt id='75'> +5.4594535e+02 </wgt>
<wgt id='76'> +5.1677295e+02 </wgt>
<wgt id='77'> +4.7847483e+02 </wgt>
<wgt id='78'> +4.3962050e+02 </wgt>
<wgt id='79'> +5.3404770e+02 </wgt>
<wgt id='80'> +4.5212739e+02 </wgt>
<wgt id='81'> +5.1868329e+02 </wgt>
<wgt id='82'> +4.9434851e+02 </wgt>
<wgt id='83'> +5.0056625e+02 </wgt>
<wgt id='84'> +5.0285216e+02 </wgt>
<wgt id='85'> +4.6396338e+02 </wgt>
<wgt id='86'> +5.2767108e+02 </wgt>
<wgt id='87'> +4.9944160e+02 </wgt>
<wgt id='88'> +4.9502944e+02 </wgt>
<wgt id='89'> +4.4010055e+02 </wgt>
<wgt id='90'> +4.7626427e+02 </wgt>
<wgt id='91'> +4.5050179e+02 </wgt>
<wgt id='92'> +4.6890577e+02 </wgt>
<wgt id='93'> +5.0874855e+02 </wgt>
<wgt id='94'> +4.6546873e+02 </wgt>
<wgt id='95'> +5.2703771e+02 </wgt>
<wgt id='96'> +5.3296325e+02 </wgt>
<wgt id='97'> +4.6253355e+02 </wgt>
<wgt id='98'> +5.3629194e+02 </wgt>
<wgt id='99'> +4.2839549e+02 </wgt>
<wgt id='100'> +3.9326663e+02 </wgt>
<wgt id='101'> +5.8797849e+02 </wgt>
<wgt id='102'> +5.6284315e+02 </wgt>
<wgt id='103'> +4.9203359e+02 </wgt>
<wgt id='104'> +5.3798396e+02 </wgt>
<wgt id='105'> +5.1836167e+02 </wgt>
<wgt id='106'> +4.8391006e+02 </wgt>
<wgt id='107'> +4.8522567e+02 </wgt>
<wgt id='108'> +4.6564046e+02 </wgt>
<wgt id='109'> +4.9465333e+02 </wgt>
<wgt id='110'> +4.6774314e+02 </wgt>
<wgt id='111'> +4.9040321e+02 </wgt>
<wgt id='112'> +5.1951866e+02 </wgt>
<wgt id='113'> +5.1947607e+02 </wgt>
<wgt id='114'> +5.2105693e+02 </wgt>
<wgt id='115'> +4.6475329e+02 </wgt>
<wgt id='116'> +5.5171816e+02 </wgt>
<wgt id='117'> +4.9493402e+02 </wgt>
<wgt id='118'> +5.2296657e+02 </wgt>
<wgt id='119'> +5.4531753e+02 </wgt>
<wgt id='120'> +5.0534568e+02 </wgt>
<wgt id='121'> +4.9630588e+02 </wgt>
<wgt id='122'> +4.9426805e+02 </wgt>
<wgt id='123'> +4.8588940e+02 </wgt>
<wgt id='124'> +5.7225779e+02 </wgt>
<wgt id='125'> +6.2867004e+02 </wgt>
<wgt id='126'> +4.9789081e+02 </wgt>
<wgt id='127'> +4.8788648e+02 </wgt>
<wgt id='128'> +4.8169530e+02 </wgt>
<wgt id='129'> +5.2509167e+02 </wgt>
<wgt id='130'> +4.9164769e+02 </wgt>
<wgt id='131'> +4.7292118e+02 </wgt>
<wgt id='132'> +5.5102223e+02 </wgt>
<wgt id='133'> +5.4787914e+02 </wgt>
<wgt id='134'> +5.2444121e+02 </wgt>
<wgt id='135'> +4.8634768e+02 </wgt>
<wgt id='136'> +5.8710375e+02 </wgt>
<wgt id='137'> +5.2229436e+02 </wgt>
<wgt id='138'> +5.1057108e+02 </wgt>
<wgt id='139'> +5.2069210e+02 </wgt>
<wgt id='140'> +4.9632689e+02 </wgt>
<wgt id='141'> +5.6656090e+02 </wgt>
<wgt id='142'> +3.6794414e+02 </wgt>
<wgt id='143'> +5.1729813e+02 </wgt>
<wgt id='144'> +4.6190133e+02 </wgt>
<wgt id='145'> +4.6864592e+02 </wgt>
</rwgt>
</event>
<event>
 4      1 +5.0481800e+02 1.81544500e+02 7.54677100e-03 1.16631700e-01
       21 -1    0    0  503  502 +0.0000000000e+00 +0.0000000000e+00 +2.0558288610e+02 2.0558288610e+02 0.0000000000e+00 0.0000e+00 -1.0000e+00
       21 -1    0    0  501  503 -0.0000000000e+00 -0.0000000000e+00 -2.3769548144e+02 2.3769548144e+02 0.0000000000e+00 0.0000e+00 -1.0000e+00
        6  1    1    2  501    0 -2.6358368184e+01 +4.8318039234e+01 +1.1040180425e+02 2.1247812798e+02 1.7300000000e+02 0.0000e+00 -1.0000e+00
       -6  1    1    2    0  502 +2.6358368184e+01 -4.8318039234e+01 -1.4251439959e+02 2.3080023956e+02 1.7300000000e+02 0.0000e+00 -1.0000e+00
<mgrwt>
<rscale>  2 0.18154448E+03</rscale>
<asrwt>0</asrwt>
<pdfrwt beam="1">  1       21 0.31628136E-01 0.18154448E+03</pdfrwt>
<pdfrwt beam="2">  1       21 0.36568536E-01 0.18154448E+03</pdfrwt>
<totfact> 0.69634120E+04</totfact>
</mgrwt>
<rwgt>
<wgt id='1'> +6.4904698e+02 </wgt>
<wgt id='2'> +6.5396715e+02 </wgt>
<wgt id='3'> +5.0481800e+02 </wgt>
<wgt id='4'> +6.4904699e+02 </wgt>
<wgt id='5'> +4.7134903e+02 </wgt>
<wgt id='6'> +6.2116285e+02 </wgt>
<wgt id='7'> +6.2616374e+02 </wgt>
<wgt id='8'> +4.7417496e+02 </wgt>
<wgt id='9'> +6.2116286e+02 </wgt>
<wgt id='10'> +4.4237402e+02 </wgt>
<wgt id='11'> +5.8345754e+02 </wgt>
<wgt id='12'> +5.8829552e+02 </wgt>
<wgt id='13'> +4.4492462e+02 </wgt>
<wgt id='14'> +5.8345754e+02 </wgt>
<wgt id='15'> +4.1509187e+02 </wgt>
<wgt id='16'> +5.2747938e+02 </wgt>
<wgt id='17'> +5.3095011e+02 </wgt>
<wgt id='18'> +4.2426424e+02 </wgt>
<wgt id='19'> +5.2747939e+02 </wgt>
<wgt id='20'> +3.9800840e+02 </wgt>
<wgt id='21'> +5.0837677e+02 </wgt>
<wgt id='22'> +3.9851090e+02 </wgt>
<wgt id='23'> +5.0481800e+02 </wgt>
<wgt id='24'> +3.7354182e+02 </wgt>
<wgt id='25'> +4.7417495e+02 </wgt>
<wgt id='26'> +4.7763190e+02 </wgt>
<wgt id='27'> +3.7392804e+02 </wgt>
<wgt id='28'> +4.7417496e+02 </wgt>
<wgt id='29'> +3.5050470e+02 </wgt>
<wgt id='30'> +4.4330955e+02 </wgt>
<wgt id='31'> +4.4594197e+02 </wgt>
<wgt id='32'> +3.6170662e+02 </wgt>
<wgt id='33'> +4.4330955e+02 </wgt>
<wgt id='34'> +3.4052406e+02 </wgt>
<wgt id='35'> +4.2426424e+02 </wgt>
<wgt id='36'> +4.2698275e+02 </wgt>
<wgt id='37'> +3.3975061e+02 </wgt>
<wgt id='38'> +4.2426424e+02 </wgt>
<wgt id='39'> +3.1959119e+02 </wgt>
<wgt id='40'> +3.9851090e+02 </wgt>
<wgt id='41'> +4.0116031e+02 </wgt>
<wgt id='42'> +3.1879248e+02 </wgt>
<wgt id='43'> +3.9851090e+02 </wgt>
<wgt id='44'> +2.9988132e+02 </wgt>
<wgt id='45'> +5.0481800e+02 </wgt>
<wgt id='46'> +5.0321080e+02 </wgt>
<wgt id='47'> +5.2279457e+02 </wgt>
<wgt id='48'> +5.0563752e+02 </wgt>
<wgt id='49'> +5.0440284e+02 </wgt>
<wgt id='50'> +5.8728973e+02 </wgt>
<wgt id='51'> +4.9514680e+02 </wgt>
<wgt id='52'> +5.0142894e+02 </wgt>
<wgt id='53'> +5.1275580e+02 </wgt>
<wgt id='54'> +5.0753371e+02 </wgt>
<wgt id='55'> +4.4847037e+02 </wgt>
<wgt id='56'> +4.7095583e+02 </wgt>
<wgt id='57'> +4.8985014e+02 </wgt>
<wgt id='58'> +5.0992474e+02 </wgt>
<wgt id='59'> +4.9409872e+02 </wgt>
<wgt id='60'> +4.8122609e+02 </wgt>
<wgt id='61'> +4.9708984e+02 </wgt>
<wgt id='62'> +4.9820689e+02 </wgt>
<wgt id='63'> +5.0520289e+02 </wgt>
<wgt id='64'> +5.0158423e+02 </wgt>
<wgt id='65'> +5.9984966e+02 </wgt>
<wgt id='66'> +4.9222088e+02 </wgt>
<wgt id='67'> +5.0948697e+02 </wgt>
<wgt id='68'> +5.3879504e+02 </wgt>
<wgt id='69'> +4.9056283e+02 </wgt>
<wgt id='70'> +4.9631035e+02 </wgt>
<wgt id='71'> +5.1470680e+02 </wgt>
<wgt id='72'> +4.9212897e+02 </wgt>
<wgt id='73'> +4.9913462e+02 </wgt>
<wgt id='74'> +5.1803957e+02 </wgt>
<wgt id='75'> +5.1597378e+02 </wgt>
<wgt id='76'> +4.8929016e+02 </wgt>
<wgt id='77'> +4.8471590e+02 </wgt>
<wgt id='78'> +5.0802133e+02 </wgt>
<wgt id='79'> +4.8212334e+02 </wgt>
<wgt id='80'> +5.0144717e+02 </wgt>
<wgt id='81'> +4.9569528e+02 </wgt>
<wgt id='82'> +5.2087905e+02 </wgt>
<wgt id='83'> +5.1549833e+02 </wgt>
<wgt id='84'> +5.5577994e+02 </wgt>
<wgt id='85'> +5.3321028e+02 </wgt>
<wgt id='86'> +5.0059910e+02 </wgt>
<wgt id='87'> +5.0421406e+02 </wgt>
<wgt id='88'> +5.1404496e+02 </wgt>
<wgt id='89'> +5.1686752e+02 </wgt>
<wgt id='90'> +5.0962392e+02 </wgt>
<wgt id='91'> +5.3939602e+02 </wgt>
<wgt id='92'> +4.6530552e+02 </wgt>
<wgt id='93'> +4.9506749e+02 </wgt>
<wgt id='94'> +5.0347417e+02 </wgt>
<wgt id='95'> +4.8310688e+02 </wgt>
<wgt id='96'> +5.4549284e+02 </wgt>
<wgt id='97'> +5.1431443e+02 </wgt>
<wgt id='98'> +4.7999052e+02 </wgt>
<wgt id='99'> +4.9119428e+02 </wgt>
<wgt id='100'> +5.0457673e+02 </wgt>
<wgt id='101'> +5.2654603e+02 </wgt>
<wgt id='102'> +4.8623875e+02 </wgt>
<wgt id='103'> +5.4843243e+02 </wgt>
<wgt id='104'> +5.0325665e+02 </wgt>
<wgt id='105'> +5.2579778e+02 </wgt>
<wgt id='106'> +4.6547548e+02 </wgt>
<wgt id='107'> +5.0141466e+02 </wgt>
<wgt id='108'> +4.5370541e+02 </wgt>
<wgt id='109'> +4.7473066e+02 </wgt>
<wgt id='110'> +5.0639664e+02 </wgt>
<wgt id='111'> +4.9202014e+02 </wgt>
<wgt id='112'> +4.8285333e+02 </wgt>
<wgt id='113'> +4.6327811e+02 </wgt>
<wgt id='114'> +5.0614878e+02 </wgt>
<wgt id='115'> +5.1019374e+02 </wgt>
<wgt id='116'> +5.0175049e+02 </wgt>
<wgt id='117'> +5.1347187e+02 </wgt>
<wgt id='118'> +5.1554161e+02 </wgt>
<wgt id='119'> +4.8481526e+02 </wgt>
<wgt id='120'> +5.0562117e+02 </wgt>
<wgt id='121'> +4.9049856e+02 </wgt>
<wgt id='122'> +4.9823571e+02 </wgt>
<wgt id='123'> +5.1150998e+02 </wgt>
<wgt id='124'> +5.3626738e+02 </wgt>
<wgt id='125'> +5.3743274e+02 </wgt>
<wgt id='126'> +5.2437653e+02 </wgt>
<wgt id='127'> +5.1964220e+02 </wgt>
<wgt id='128'> +4.7024048e+02 </wgt>
<wgt id='129'> +5.7239600e+02 </wgt>
<wgt id='130'> +5.0954345e+02 </wgt>
<wgt id='131'> +5.4246472e+02 </wgt>
<wgt id='132'> +4.9542320e+02 </wgt>
<wgt id='133'> +4.9893959e+02 </wgt>
<wgt id='134'> +4.7270918e+02 </wgt>
<wgt id='135'> +5.1848901e+02 </wgt>
<wgt id='136'> +4.7980415e+02 </wgt>
<wgt id='137'> +4.7406439e+02 </wgt>
<wgt id='138'> +4.5644243e+02 </wgt>
<wgt id='139'> +5.1365964e+02 </wgt>
<wgt id='140'> +5.3917695e+02 </wgt>
<wgt id='141'> +5.0313334e+02 </wgt>
<wgt id='142'> +5.1218755e+02 </wgt>
<wgt id='143'> +4.9826202e+02 </wgt>
<wgt id='144'> +5.0566958e+02 </wgt>
<wgt id='145'> +5.0612008e+02 </wgt>
</rwgt>
</event>
<event>
 4      1 +5.0481800e+02 1.80279900e+02 7.54677100e-03 1.16753200e-01
       21 -1    0    0  501  502 +0.0000000000e+00 +0.0000000000e+00 +1.1502511002e+02 1.1502511002e+02 0.0000000000e+00 0.0000e+00 -1.0000e+00
       21 -1    0    0  502  503 -0.0000000000e+00 -0.0000000000e+00 -3.2578331160e+02 3.2578331160e+02 0.0000000000e+00 0.0000e+00 -1.0000e+00
        6  1    1    2  501    0 -3.3217797531e+01 +3.8320066983e+01 -2.5092572315e+01 1.8201781998e+02 1.7300000000e+02 0.0000e+00 -1.0000e+00
       -6  1    1    2    0  503 +3.3217797531e+01 -3.8320066983e+01 -1.8566562926e+02 2.5879060163e+02 1.7300000000e+02 0.0000e+00 -1.0000e+00
<mgrwt>
<rscale>  2 0.18027992E+03</rscale>
<asrwt>0</asrwt>
<pdfrwt beam="1">  1       21 0.17696171E-01 0.18027992E+03</pdfrwt>
<pdfrwt beam="2">  1       21 0.50120509E-01 0.18027992E+03</pdfrwt>
<totfact> 0.11034382E+05</totfact>
</mgrwt>
<rwgt>
<wgt id='1'> +6.4390300e+02 </wgt>
<wgt id='2'> +5.8892584e+02 </wgt>
<wgt id='3'> +5.0481800e+02 </wgt>
<wgt id='4'> +6.4390300e+02 </wgt>
<wgt id='5'> +4.9275980e+02 </wgt>
<wgt id='6'> +6.2138278e+02 </wgt>
<wgt id='7'> +5.6387717e+02 </wgt>
<wgt id='8'> +4.7758557e+02 </wgt>
<wgt id='9'> +6.2138278e+02 </wgt>
<wgt id='10'> +4.6581946e+02 </wgt>
<wgt id='11'> +5.8786226e+02 </wgt>
<wgt id='12'> +5.3281982e+02 </wgt>
<wgt id='13'> +4.5094959e+02 </wgt>
<wgt id='14'> +5.8786226e+02 </wgt>
<wgt id='15'> +4.3980658e+02 </wgt>
<wgt id='16'> +5.2311366e+02 </wgt>
<wgt id='17'> +4.8473456e+02 </wgt>
<wgt id='18'> +4.2417093e+02 </wgt>
<wgt id='19'> +5.2311366e+02 </wgt>
<wgt id='20'> +4.1491058e+02 </wgt>
<wgt id='21'> +4.6411743e+02 </wgt>
<wgt id='22'> +4.0128900e+02 </wgt>
<wgt id='23'> +5.0481800e+02 </wgt>
<wgt id='24'> +3.9222643e+02 </wgt>
<wgt id='25'> +4.7758557e+02 </wgt>
<wgt id='26'> +4.3855467e+02 </wgt>
<wgt id='27'> +3.7890825e+02 </wgt>
<wgt id='28'> +4.7758557e+02 </wgt>
<wgt id='29'> +3.7032323e+02 </wgt>
<wgt id='30'> +4.3954377e+02 </wgt>
<wgt id='31'> +4.0966822e+02 </wgt>
<wgt id='32'> +3.6158091e+02 </wgt>
<wgt id='33'> +4.3954377e+02 </wgt>
<wgt id='34'> +3.5414509e+02 </wgt>
<wgt id='35'> +4.2417093e+02 </wgt>
<wgt id='36'> +3.9224388e+02 </wgt>
<wgt id='37'> +3.4207540e+02 </wgt>
<wgt id='38'> +4.2417093e+02 </wgt>
<wgt id='39'> +3.3478314e+02 </wgt>
<wgt id='40'> +4.0128900e+02 </wgt>
<wgt id='41'> +3.7063978e+02 </wgt>
<wgt id='42'> +3.2299712e+02 </wgt>
<wgt id='43'> +4.0128900e+02 </wgt>
<wgt id='44'> +3.1608776e+02 </wgt>
<wgt id='45'> +5.0481800e+02 </wgt>
<wgt id='46'> +5.0314397e+02 </wgt>
<wgt id='47'> +5.2041782e+02 </wgt>
<wgt id='48'> +5.0473448e+02 </wgt>
<wgt id='49'> +5.0377683e+02 </wgt>
<wgt id='50'> +5.8063134e+02 </wgt>
<wgt id='51'> +4.9519326e+02 </wgt>
<wgt id='52'> +5.0205241e+02 </wgt>
<wgt id='53'> +5.1124774e+02 </wgt>
<wgt id='54'> +5.0766495e+02 </wgt>
<wgt id='55'> +4.5462650e+02 </wgt>
<wgt id='56'> +4.7232844e+02 </wgt>
<wgt id='57'> +4.9284103e+02 </wgt>
<wgt id='58'> +5.1021872e+02 </wgt>
<wgt id='59'> +4.9720265e+02 </wgt>
<wgt id='60'> +4.8444726e+02 </wgt>
<wgt id='61'> +4.9374969e+02 </wgt>
<wgt id='62'> +4.9776705e+02 </wgt>
<wgt id='63'> +5.0521178e+02 </wgt>
<wgt id='64'> +5.0183397e+02 </wgt>
<wgt id='65'> +5.9068667e+02 </wgt>
<wgt id='66'> +4.9258859e+02 </wgt>
<wgt id='67'> +5.0924818e+02 </wgt>
<wgt id='68'> +5.3813914e+02 </wgt>
<wgt id='69'> +4.8946182e+02 </wgt>
<wgt id='70'> +4.9717887e+02 </wgt>
<wgt id='71'> +5.1442660e+02 </wgt>
<wgt id='72'> +4.9609353e+02 </wgt>
<wgt id='73'> +4.9939876e+02 </wgt>
<wgt id='74'> +5.1756913e+02 </wgt>
<wgt id='75'> +5.1470104e+02 </wgt>
<wgt id='76'> +4.9172055e+02 </wgt>
<wgt id='77'> +4.8605014e+02 </wgt>
<wgt id='78'> +5.0644302e+02 </wgt>
<wgt id='79'> +4.8408800e+02 </wgt>
<wgt id='80'> +5.0121945e+02 </wgt>
<wgt id='81'> +4.9671706e+02 </wgt>
<wgt id='82'> +5.1830329e+02 </wgt>
<wgt id='83'> +5.1299087e+02 </wgt>
<wgt id='84'> +5.5086684e+02 </wgt>
<wgt id='85'> +5.2956192e+02 </wgt>
<wgt id='86'> +5.0007037e+02 </wgt>
<wgt id='87'> +5.0425896e+02 </wgt>
<wgt id='88'> +5.1170716e+02 </wgt>
<wgt id='89'> +5.1560833e+02 </wgt>
<wgt id='90'> +5.1037292e+02 </wgt>
<wgt id='91'> +5.3620404e+02 </wgt>
<wgt id='92'> +4.7036867e+02 </wgt>
<wgt id='93'> +4.9528528e+02 </wgt>
<wgt id='94'> +5.0370113e+02 </wgt>
<wgt id='95'> +4.8675554e+02 </wgt>
<wgt id='96'> +5.4059976e+02 </wgt>
<wgt id='97'> +5.1329029e+02 </wgt>
<wgt id='98'> +4.8204614e+02 </wgt>
<wgt id='99'> +4.9122661e+02 </wgt>
<wgt id='100'> +5.0414454e+02 </wgt>
<wgt id='101'> +5.2639489e+02 </wgt>
<wgt id='102'> +4.8780949e+02 </wgt>
<wgt id='103'> +5.4528061e+02 </wgt>
<wgt id='104'> +5.0237248e+02 </wgt>
<wgt id='105'> +5.2625880e+02 </wgt>
<wgt id='106'> +4.6922994e+02 </wgt>
<wgt id='107'> +5.0200717e+02 </wgt>
<wgt id='108'> +4.5680629e+02 </wgt>
<wgt id='109'> +4.7741163e+02 </wgt>
<wgt id='110'> +5.0677401e+02 </wgt>
<wgt id='111'> +4.9331412e+02 </wgt>
<wgt id='112'> +4.8375602e+02 </wgt>
<wgt id='113'> +4.6640151e+02 </wgt>
<wgt id='114'> +5.0668859e+02 </wgt>
<wgt id='115'> +5.0707932e+02 </wgt>
<wgt id='116'> +5.0132152e+02 </wgt>
<wgt id='117'> +5.1166844e+02 </wgt>
<wgt id='118'> +5.1456265e+02 </wgt>
<wgt id='119'> +4.8728717e+02 </wgt>
<wgt id='120'> +5.0324983e+02 </wgt>
<wgt id='121'> +4.9281117e+02 </wgt>
<wgt id='122'> +4.9904069e+02 </wgt>
<wgt id='123'> +5.0962387e+02 </wgt>
<wgt id='124'> +5.3511821e+02 </wgt>
<wgt id='125'> +5.3678549e+02 </wgt>
<wgt id='126'> +5.2177951e+02 </wgt>
<wgt id='127'> +5.1814742e+02 </wgt>
<wgt id='128'> +4.7028759e+02 </wgt>
<wgt id='129'> +5.6894766e+02 </wgt>
<wgt id='130'> +5.0665775e+02 </wgt>
<wgt id='131'> +5.3955886e+02 </wgt>
<wgt id='132'> +4.9959787e+02 </wgt>
<wgt id='133'> +4.9961383e+02 </wgt>
<wgt id='134'> +4.7609787e+02 </wgt>
<wgt id='135'> +5.1741296e+02 </wgt>
<wgt id='136'> +4.8493795e+02 </wgt>
<wgt id='137'> +4.7485176e+02 </wgt>
<wgt id='138'> +4.5665517e+02 </wgt>
<wgt id='139'> +5.1343857e+02 </wgt>
<wgt id='140'> +5.3652657e+02 </wgt>
<wgt id='141'> +5.0323208e+02 </wgt>
<wgt id='142'> +5.0996228e+02 </wgt>
<wgt id='143'> +5.0059460e+02 </wgt>
<wgt id='144'> +5.0643446e+02 </wgt>
<wgt id='145'> +5.0586216e+02 </wgt>
</rwgt>
</event>
<event>
 4      1 +5.0481800e+02 1.73918600e+02 7.54677100e-03 1.17382200e-01
       21 -1    0    0  503  502 +0.0000000000e+00 +0.0000000000e+00 +1.2196153833e+02 1.2196153833e+02 0.0000000000e+00 0.0000e+00 -1.0000e+00
       21 -1    0    0  501  503 -0.0000000000e+00 -0.0000000000e+00 -6.1885147420e+02 6.1885147420e+02 0.0000000000e+00 0.0000e+00 -1.0000e+00
        6  1    1    2  501    0 -1.7851368853e+01 -6.5316775402e-04 -5.3517922848e+02 5.6272948915e+02 1.7300000000e+02 0.0000e+00 -1.0000e+00
       -6  1    1    2    0  502 +1.7851368853e+01 +6.5316775402e-04 +3.8289292607e+01 1.7808352338e+02 1.7300000000e+02 0.0000e+00 -1.0000e+00
<mgrwt>
<rscale>  2 0.17391858E+03</rscale>
<asrwt>0</asrwt>
<pdfrwt beam="1">  1       21 0.18763313E-01 0.17391858E+03</pdfrwt>
<pdfrwt beam="2">  1       21 0.95207920E-01 0.17391858E+03</pdfrwt>
<totfact> 0.24229066E+04</totfact>
</mgrwt>
<rwgt>
<wgt id='1'> +6.6458932e+02 </wgt>
<wgt id='2'> +8.6181329e+02 </wgt>
<wgt id='3'> +5.0481800e+02 </wgt>
<wgt id='4'> +6.6458932e+02 </wgt>
<wgt id='5'> +4.2516388e+02 </wgt>
<wgt id='6'> +6.2244827e+02 </wgt>
<wgt id='7'> +8.1157429e+02 </wgt>
<wgt id='8'> +4.6488118e+02 </wgt>
<wgt id='9'> +6.2244827e+02 </wgt>
<wgt id='10'> +3.9141637e+02 </wgt>
<wgt id='11'> +5.7320556e+02 </wgt>
<wgt id='12'> +7.5893125e+02 </wgt>
<wgt id='13'> +4.2818796e+02 </wgt>
<wgt id='14'> +5.7320557e+02 </wgt>
<wgt id='15'> +3.6093021e+02 </wgt>
<wgt id='16'> +5.3899524e+02 </wgt>
<wgt id='17'> +6.8359673e+02 </wgt>
<wgt id='18'> +4.2366897e+02 </wgt>
<wgt id='19'> +5.3899524e+02 </wgt>
<wgt id='20'> +3.6056010e+02 </wgt>
<wgt id='21'> +6.4374678e+02 </wgt>
<wgt id='22'> +3.9015196e+02 </wgt>
<wgt id='23'> +5.0481800e+02 </wgt>
<wgt id='24'> +3.3194053e+02 </wgt>
<wgt id='25'> +4.6488118e+02 </wgt>
<wgt id='26'> +6.0198993e+02 </wgt>
<wgt id='27'> +3.5935713e+02 </wgt>
<wgt id='28'> +4.6488118e+02 </wgt>
<wgt id='29'> +3.0608676e+02 </wgt>
<wgt id='30'> +4.5235224e+02 </wgt>
<wgt id='31'> +5.5643394e+02 </wgt>
<wgt id='32'> +3.6091410e+02 </wgt>
<wgt id='33'> +4.5235224e+02 </wgt>
<wgt id='34'> +3.0963535e+02 </wgt>
<wgt id='35'> +4.2366897e+02 </wgt>
<wgt id='36'> +5.2399688e+02 </wgt>
<wgt id='37'> +3.3236170e+02 </wgt>
<wgt id='38'> +4.2366897e+02 </wgt>
<wgt id='39'> +2.8505795e+02 </wgt>
<wgt id='40'> +3.9015195e+02 </wgt>
<wgt id='41'> +4.9000765e+02 </wgt>
<wgt id='42'> +3.0612828e+02 </wgt>
<wgt id='43'> +3.9015196e+02 </wgt>
<wgt id='44'> +2.6285571e+02 </wgt>
<wgt id='45'> +5.0481800e+02 </wgt>
<wgt id='46'> +5.1496009e+02 </wgt>
<wgt id='47'> +5.2266775e+02 </wgt>
<wgt id='48'> +5.0888072e+02 </wgt>
<wgt id='49'> +4.9739319e+02 </wgt>
<wgt id='50'> +6.0718757e+02 </wgt>
<wgt id='51'> +4.9209006e+02 </wgt>
<wgt id='52'> +5.0337693e+02 </wgt>
<wgt id='53'> +5.0041537e+02 </wgt>
<wgt id='54'> +5.1258739e+02 </wgt>
<wgt id='55'> +4.7071084e+02 </wgt>
<wgt id='56'> +4.5991183e+02 </wgt>
<wgt id='57'> +5.0337933e+02 </wgt>
<wgt id='58'> +4.9481183e+02 </wgt>
<wgt id='59'> +5.1939974e+02 </wgt>
<wgt id='60'> +4.9940202e+02 </wgt>
<wgt id='61'> +4.4979956e+02 </wgt>
<wgt id='62'> +4.9531265e+02 </wgt>
<wgt id='63'> +5.0700026e+02 </wgt>
<wgt id='64'> +4.9494435e+02 </wgt>
<wgt id='65'> +5.7117477e+02 </wgt>
<wgt id='66'> +4.9533878e+02 </wgt>
<wgt id='67'> +5.0807924e+02 </wgt>
<wgt id='68'> +5.5666708e+02 </wgt>
<wgt id='69'> +5.0416708e+02 </wgt>
<wgt id='70'> +4.9766027e+02 </wgt>
<wgt id='71'> +5.1009717e+02 </wgt>
<wgt id='72'> +4.8248580e+02 </wgt>
<wgt id='73'> +4.8884282e+02 </wgt>
<wgt id='74'> +5.3383262e+02 </wgt>
<wgt id='75'> +5.1769479e+02 </wgt>
<wgt id='76'> +4.9597403e+02 </wgt>
<wgt id='77'> +4.9290259e+02 </wgt>
<wgt id='78'> +4.8493367e+02 </wgt>
<wgt id='79'> +4.9629246e+02 </wgt>
<wgt id='80'> +4.9123868e+02 </wgt>
<wgt id='81'> +4.9461214e+02 </wgt>
<wgt id='82'> +5.0106074e+02 </wgt>
<wgt id='83'> +5.1312193e+02 </wgt>
<wgt id='84'> +5.4685573e+02 </wgt>
<wgt id='85'> +5.1776946e+02 </wgt>
<wgt id='86'> +5.0756366e+02 </wgt>
<wgt id='87'> +5.0791723e+02 </wgt>
<wgt id='88'> +5.0932402e+02 </wgt>
<wgt id='89'> +5.1194445e+02 </wgt>
<wgt id='90'> +5.1340722e+02 </wgt>
<wgt id='91'> +5.2025463e+02 </wgt>
<wgt id='92'> +4.5725435e+02 </wgt>
<wgt id='93'> +5.0170598e+02 </wgt>
<wgt id='94'> +4.9121383e+02 </wgt>
<wgt id='95'> +4.9475602e+02 </wgt>
<wgt id='96'> +5.4518951e+02 </wgt>
<wgt id='97'> +5.0055506e+02 </wgt>
<wgt id='98'> +4.9179094e+02 </wgt>
<wgt id='99'> +4.7849905e+02 </wgt>
<wgt id='100'> +4.7202452e+02 </wgt>
<wgt id='101'> +5.5602010e+02 </wgt>
<wgt id='102'> +5.1599586e+02 </wgt>
<wgt id='103'> +5.4606881e+02 </wgt>
<wgt id='104'> +5.0999122e+02 </wgt>
<wgt id='105'> +5.2125051e+02 </wgt>
<wgt id='106'> +4.5785958e+02 </wgt>
<wgt id='107'> +4.8210631e+02 </wgt>
<wgt id='108'> +4.4341322e+02 </wgt>
<wgt id='109'> +4.7324295e+02 </wgt>
<wgt id='110'> +4.9998557e+02 </wgt>
<wgt id='111'> +4.9002668e+02 </wgt>
<wgt id='112'> +4.7798988e+02 </wgt>
<wgt id='113'> +4.6560052e+02 </wgt>
<wgt id='114'> +4.9514255e+02 </wgt>
<wgt id='115'> +4.8234773e+02 </wgt>
<wgt id='116'> +5.2146310e+02 </wgt>
<wgt id='117'> +5.0128815e+02 </wgt>
<wgt id='118'> +5.2920739e+02 </wgt>
<wgt id='119'> +4.9118714e+02 </wgt>
<wgt id='120'> +4.9444155e+02 </wgt>
<wgt id='121'> +4.9334822e+02 </wgt>
<wgt id='122'> +4.9842285e+02 </wgt>
<wgt id='123'> +5.0930822e+02 </wgt>
<wgt id='124'> +5.5841156e+02 </wgt>
<wgt id='125'> +5.6339619e+02 </wgt>
<wgt id='126'> +5.2217775e+02 </wgt>
<wgt id='127'> +5.1883494e+02 </wgt>
<wgt id='128'> +4.5919748e+02 </wgt>
<wgt id='129'> +5.6881045e+02 </wgt>
<wgt id='130'> +5.0305487e+02 </wgt>
<wgt id='131'> +5.2888699e+02 </wgt>
<wgt id='132'> +5.2465045e+02 </wgt>
<wgt id='133'> +5.1725106e+02 </wgt>
<wgt id='134'> +4.8715379e+02 </wgt>
<wgt id='135'> +5.1281072e+02 </wgt>
<wgt id='136'> +5.1490129e+02 </wgt>
<wgt id='137'> +4.8255162e+02 </wgt>
<wgt id='138'> +4.7258623e+02 </wgt>
<wgt id='139'> +5.2005459e+02 </wgt>
<wgt id='140'> +5.2280156e+02 </wgt>
<wgt id='141'> +5.1308633e+02 </wgt>
<wgt id='142'> +4.7877910e+02 </wgt>
<wgt id='143'> +5.1198525e+02 </wgt>
<wgt id='144'> +4.9415106e+02 </wgt>
<wgt id='145'> +5.0123126e+02 </wgt>
</rwgt>
</event>
<event>
 4      1 +5.0481800e+02 2.06334100e+02 7.54677100e-03 1.14450200e-01
       21 -1    0    0  503  502 +0.0000000000e+00 +0.0000000000e+00 +6.8973799439e+02 6.8973799439e+02 0.0000000000e+00 0.0000e+00 1.0000e+00
       21 -1    0    0  501  503 -0.0000000000e+00 -0.0000000000e+00 -7.0038360228e+01 7.0038360228e+01 0.0000000000e+00 0.0000e+00 1.0000e+00
        6  1    1    2  501    0 +1.0977658125e+02 +2.4369689674e+01 +1.7896556883e+02 2.7313449873e+02 1.7300000000e+02 0.0000e+00 1.0000e+00
       -6  1    1    2    0  502 -1.0977658125e+02 -2.4369689674e+01 +4.4073406533e+02 4.8664185590e+02 1.7300000000e+02 0.0000e+00 1.0000e+00
<mgrwt>
<rscale>  2 0.20633415E+03</rscale>
<asrwt>0</asrwt>
<pdfrwt beam="1">  1       21 0.10611353E+00 0.20633415E+03</pdfrwt>
<pdfrwt beam="2">  1       21 0.10775133E-01 0.20633415E+03</pdfrwt>
<totfact> 0.50286477E+04</totfact>
</mgrwt>
<rwgt>
<wgt id='1'> +6.5377153e+02 </wgt>
<wgt id='2'> +5.9385012e+02 </wgt>
<wgt id='3'> +5.0481800e+02 </wgt>
<wgt id='4'> +6.5377154e+02 </wgt>
<wgt id='5'> +4.9344828e+02 </wgt>
<wgt id='6'> +6.1723198e+02 </wgt>
<wgt id='7'> +5.5636397e+02 </wgt>
<wgt id='8'> +4.6927189e+02 </wgt>
<wgt id='9'> +6.1723199e+02 </wgt>
<wgt id='10'> +4.5873087e+02 </wgt>
<wgt id='11'> +5.7377038e+02 </wgt>
<wgt id='12'> +5.1724122e+02 </wgt>
<wgt id='13'> +4.3636532e+02 </wgt>
<wgt id='14'> +5.7377038e+02 </wgt>
<wgt id='15'> +4.2658833e+02 </wgt>
<wgt id='16'> +5.3470275e+02 </wgt>
<wgt id='17'> +4.9227865e+02 </wgt>
<wgt id='18'> +4.2570535e+02 </wgt>
<wgt id='19'> +5.3470275e+02 </wgt>
<wgt id='20'> +4.1662451e+02 </wgt>
<wgt id='21'> +4.6120409e+02 </wgt>
<wgt id='22'> +3.9572985e+02 </wgt>
<wgt id='23'> +5.0481800e+02 </wgt>
<wgt id='24'> +3.8731217e+02 </wgt>
<wgt id='25'> +4.6927188e+02 </wgt>
<wgt id='26'> +4.2877285e+02 </wgt>
<wgt id='27'> +3.6798024e+02 </wgt>
<wgt id='28'> +4.6927189e+02 </wgt>
<wgt id='29'> +3.6017382e+02 </wgt>
<wgt id='30'> +4.5090671e+02 </wgt>
<wgt id='31'> +4.1719920e+02 </wgt>
<wgt id='32'> +3.6377757e+02 </wgt>
<wgt id='33'> +4.5090671e+02 </wgt>
<wgt id='34'> +3.5641569e+02 </wgt>
<wgt id='35'> +4.2570535e+02 </wgt>
<wgt id='36'> +3.9086394e+02 </wgt>
<wgt id='37'> +3.3816263e+02 </wgt>
<wgt id='38'> +4.2570535e+02 </wgt>
<wgt id='39'> +3.3133944e+02 </wgt>
<wgt id='40'> +3.9572985e+02 </wgt>
<wgt id='41'> +3.6337893e+02 </wgt>
<wgt id='42'> +3.1444979e+02 </wgt>
<wgt id='43'> +3.9572985e+02 </wgt>
<wgt id='44'> +3.0812301e+02 </wgt>
<wgt id='45'> +5.0481800e+02 </wgt>
<wgt id='46'> +5.1507895e+02 </wgt>
<wgt id='47'> +5.1869399e+02 </wgt>
<wgt id='48'> +5.0693803e+02 </wgt>
<wgt id='49'> +4.9436584e+02 </wgt>
<wgt id='50'> +5.9489310e+02 </wgt>
<wgt id='51'> +4.9104124e+02 </wgt>
<wgt id='52'> +5.0205123e+02 </wgt>
<wgt id='53'> +4.9888993e+02 </wgt>
<wgt id='54'> +5.1491312e+02 </wgt>
<wgt id='55'> +4.8633407e+02 </wgt>
<wgt id='56'> +4.6449006e+02 </wgt>
<wgt id='57'> +5.0998022e+02 </wgt>
<wgt id='58'> +4.9249928e+02 </wgt>
<wgt id='59'> +5.2537234e+02 </wgt>
<wgt id='60'> +5.0436207e+02 </wgt>
<wgt id='61'> +4.4573218e+02 </wgt>
<wgt id='62'> +4.9286456e+02 </wgt>
<wgt id='63'> +5.0900581e+02 </wgt>
<wgt id='64'> +4.9729590e+02 </wgt>
<wgt id='65'> +5.5017051e+02 </wgt>
<wgt id='66'> +4.9721393e+02 </wgt>
<wgt id='67'> +5.0750320e+02 </wgt>
<wgt id='68'> +5.5769541e+02 </wgt>
<wgt id='69'> +5.0526283e+02 </wgt>
<wgt id='70'> +5.0165448e+02 </wgt>
<wgt id='71'> +5.0659594e+02 </wgt>
<wgt id='72'> +4.8685818e+02 </wgt>
<wgt id='73'> +4.8682815e+02 </wgt>
<wgt id='74'> +5.3531921e+02 </wgt>
<wgt id='75'> +5.1731876e+02 </wgt>
<wgt id='76'> +5.0108857e+02 </wgt>
<wgt id='77'> +4.9399638e+02 </wgt>
<wgt id='78'> +4.7980784e+02 </wgt>
<wgt id='79'> +5.0203743e+02 </wgt>
<wgt id='80'> +4.8841892e+02 </wgt>
<wgt id='81'> +4.9789897e+02 </wgt>
<wgt id='82'> +4.9598315e+02 </wgt>
<wgt id='83'> +5.0825840e+02 </wgt>
<wgt id='84'> +5.3570192e+02 </wgt>
<wgt id='85'> +5.0851990e+02 </wgt>
<wgt id='86'> +5.0817788e+02 </wgt>
<wgt id='87'> +5.0732035e+02 </wgt>
<wgt id='88'> +5.0487445e+02 </wgt>
<wgt id='89'> +5.0453718e+02 </wgt>
<wgt id='90'> +5.1122008e+02 </wgt>
<wgt id='91'> +5.1019642e+02 </wgt>
<wgt id='92'> +4.6550814e+02 </wgt>
<wgt id='93'> +5.0264094e+02 </wgt>
<wgt id='94'> +4.8922578e+02 </wgt>
<wgt id='95'> +5.0294941e+02 </wgt>
<wgt id='96'> +5.3623008e+02 </wgt>
<wgt id='97'> +4.9614377e+02 </wgt>
<wgt id='98'> +4.9796797e+02 </wgt>
<wgt id='99'> +4.7512076e+02 </wgt>
<wgt id='100'> +4.6564844e+02 </wgt>
<wgt id='101'> +5.5701045e+02 </wgt>
<wgt id='102'> +5.2172208e+02 </wgt>
<wgt id='103'> +5.3640370e+02 </wgt>
<wgt id='104'> +5.1090601e+02 </wgt>
<wgt id='105'> +5.2124199e+02 </wgt>
<wgt id='106'> +4.6597608e+02 </wgt>
<wgt id='107'> +4.8335696e+02 </wgt>
<wgt id='108'> +4.5120396e+02 </wgt>
<wgt id='109'> +4.7996121e+02 </wgt>
<wgt id='110'> +4.9815568e+02 </wgt>
<wgt id='111'> +4.9234384e+02 </wgt>
<wgt id='112'> +4.8408738e+02 </wgt>
<wgt id='113'> +4.7481191e+02 </wgt>
<wgt id='114'> +4.9891140e+02 </wgt>
<wgt id='115'> +4.7839635e+02 </wgt>
<wgt id='116'> +5.2291518e+02 </wgt>
<wgt id='117'> +4.9857736e+02 </wgt>
<wgt id='118'> +5.2694609e+02 </wgt>
<wgt id='119'> +4.9916511e+02 </wgt>
<wgt id='120'> +4.9500131e+02 </wgt>
<wgt id='121'> +4.9775204e+02 </wgt>
<wgt id='122'> +4.9931425e+02 </wgt>
<wgt id='123'> +5.0522249e+02 </wgt>
<wgt id='124'> +5.5659873e+02 </wgt>
<wgt id='125'> +5.6581531e+02 </wgt>
<wgt id='126'> +5.1659812e+02 </wgt>
<wgt id='127'> +5.1400987e+02 </wgt>
<wgt id='128'> +4.6232115e+02 </wgt>
<wgt id='129'> +5.5889381e+02 </wgt>
<wgt id='130'> +4.9815441e+02 </wgt>
<wgt id='131'> +5.2001271e+02 </wgt>
<wgt id='132'> +5.3172447e+02 </wgt>
<wgt id='133'> +5.2034930e+02 </wgt>
<wgt id='134'> +4.9511033e+02 </wgt>
<wgt id='135'> +5.0888421e+02 </wgt>
<wgt id='136'> +5.2767142e+02 </wgt>
<wgt id='137'> +4.8690341e+02 </wgt>
<wgt id='138'> +4.7694097e+02 </wgt>
<wgt id='139'> +5.1937618e+02 </wgt>
<wgt id='140'> +5.1669132e+02 </wgt>
<wgt id='141'> +5.1706059e+02 </wgt>
<wgt id='142'> +4.6928843e+02 </wgt>
<wgt id='143'> +5.1527897e+02 </wgt>
<wgt id='144'> +4.9263139e+02 </wgt>
<wgt id='145'> +4.9755123e+02 </wgt>
</rwgt>
</event>
<event>
 4      1 +5.0481800e+02 2.12717600e+02 7.54677100e-03 1.13943200e-01
       21 -1    0    0  503  502 +0.0000000000e+00 +0.0000000000e+00 +8.9323408189e+02 8.9323408189e+02 0.0000000000e+00 0.0000e+00 1.0000e+00
       21 -1    0    0  501  503 -0.0000000000e+00 -0.0000000000e+00 -5.0684271491e+01 5.0684271491e+01 0.0000000000e+00 0.0000e+00 1.0000e+00
        6  1    1    2  501    0 -1.0190090353e+02 +7.0256492281e+01 +4.3217530760e+02 4.8168897159e+02 1.7300000000e+02 0.0000e+00 1.0000e+00
       -6  1    1    2    0  502 +1.0190090353e+02 -7.0256492281e+01 +4.1037450280e+02 4.6222938180e+02 1.7300000000e+02 0.0000e+00 1.0000e+00
<mgrwt>
<rscale>  2 0.21271758E+03</rscale>
<asrwt>0</asrwt>
<pdfrwt beam="1">  1       21 0.13742062E+00 0.21271758E+03</pdfrwt>
<pdfrwt beam="2">  1       21 0.77975809E-02 0.21271758E+03</pdfrwt>
<totfact> 0.46585090E+04</totfact>
</mgrwt>
<rwgt>
<wgt id='1'> +6.5714663e+02 </wgt>
<wgt id='2'> +6.0240027e+02 </wgt>
<wgt id='3'> +5.0481800e+02 </wgt>
<wgt id='4'> +6.5714663e+02 </wgt>
<wgt id='5'> +5.0476832e+02 </wgt>
<wgt id='6'> +6.1616995e+02 </wgt>
<wgt id='7'> +5.6107467e+02 </wgt>
<wgt id='8'> +4.6664753e+02 </wgt>
<wgt id='9'> +6.1616995e+02 </wgt>
<wgt id='10'> +4.6660179e+02 </wgt>
<wgt id='11'> +5.6957989e+02 </wgt>
<wgt id='12'> +5.1874736e+02 </wgt>
<wgt id='13'> +4.3164006e+02 </wgt>
<wgt id='14'> +5.6957989e+02 </wgt>
<wgt id='15'> +4.3159792e+02 </wgt>
<wgt id='16'> +5.3838953e+02 </wgt>
<wgt id='17'> +4.9941173e+02 </wgt>
<wgt id='18'> +4.2596238e+02 </wgt>
<wgt id='19'> +5.3838953e+02 </wgt>
<wgt id='20'> +4.2592264e+02 </wgt>
<wgt id='21'> +4.6515131e+02 </wgt>
<wgt id='22'> +3.9375437e+02 </wgt>
<wgt id='23'> +5.0481800e+02 </wgt>
<wgt id='24'> +3.9371779e+02 </wgt>
<wgt id='25'> +4.6664753e+02 </wgt>
<wgt id='26'> +4.3006043e+02 </wgt>
<wgt id='27'> +3.6421528e+02 </wgt>
<wgt id='28'> +4.6664753e+02 </wgt>
<wgt id='29'> +3.6418158e+02 </wgt>
<wgt id='30'> +4.5428984e+02 </wgt>
<wgt id='31'> +4.2325930e+02 </wgt>
<wgt id='32'> +3.6419484e+02 </wgt>
<wgt id='33'> +4.5428984e+02 </wgt>
<wgt id='34'> +3.6416257e+02 </wgt>
<wgt id='35'> +4.2596238e+02 </wgt>
<wgt id='36'> +3.9422305e+02 </wgt>
<wgt id='37'> +3.3665721e+02 </wgt>
<wgt id='38'> +4.2596238e+02 </wgt>
<wgt id='39'> +3.3662752e+02 </wgt>
<wgt id='40'> +3.9375437e+02 </wgt>
<wgt id='41'> +3.6448298e+02 </wgt>
<wgt id='42'> +3.1140150e+02 </wgt>
<wgt id='43'> +3.9375437e+02 </wgt>
<wgt id='44'> +3.1137416e+02 </wgt>
<wgt id='45'> +5.0481800e+02 </wgt>
<wgt id='46'> +5.1801832e+02 </wgt>
<wgt id='47'> +5.1657128e+02 </wgt>
<wgt id='48'> +5.0586821e+02 </wgt>
<wgt id='49'> +4.8548656e+02 </wgt>
<wgt id='50'> +5.9247480e+02 </wgt>
<wgt id='51'> +4.8618357e+02 </wgt>
<wgt id='52'> +4.9584183e+02 </wgt>
<wgt id='53'> +4.9766838e+02 </wgt>
<wgt id='54'> +5.2240009e+02 </wgt>
<wgt id='55'> +5.1381778e+02 </wgt>
<wgt id='56'> +4.6894866e+02 </wgt>
<wgt id='57'> +5.2156301e+02 </wgt>
<wgt id='58'> +4.8134291e+02 </wgt>
<wgt id='59'> +5.3770678e+02 </wgt>
<wgt id='60'> +5.0973556e+02 </wgt>
<wgt id='61'> +4.4322395e+02 </wgt>
<wgt id='62'> +4.8537930e+02 </wgt>
<wgt id='63'> +5.1570195e+02 </wgt>
<wgt id='64'> +5.0033178e+02 </wgt>
<wgt id='65'> +5.1833353e+02 </wgt>
<wgt id='66'> +5.0101954e+02 </wgt>
<wgt id='67'> +5.0678413e+02 </wgt>
<wgt id='68'> +5.7184825e+02 </wgt>
<wgt id='69'> +5.1568111e+02 </wgt>
<wgt id='70'> +5.1111601e+02 </wgt>
<wgt id='71'> +4.9638648e+02 </wgt>
<wgt id='72'> +4.8307566e+02 </wgt>
<wgt id='73'> +4.7719382e+02 </wgt>
<wgt id='74'> +5.4703497e+02 </wgt>
<wgt id='75'> +5.2306186e+02 </wgt>
<wgt id='76'> +5.0865941e+02 </wgt>
<wgt id='77'> +4.9250494e+02 </wgt>
<wgt id='78'> +4.6429323e+02 </wgt>
<wgt id='79'> +5.1443001e+02 </wgt>
<wgt id='80'> +4.7655869e+02 </wgt>
<wgt id='81'> +5.0389280e+02 </wgt>
<wgt id='82'> +4.8842079e+02 </wgt>
<wgt id='83'> +5.0282652e+02 </wgt>
<wgt id='84'> +5.2032086e+02 </wgt>
<wgt id='85'> +4.9105094e+02 </wgt>
<wgt id='86'> +5.1344548e+02 </wgt>
<wgt id='87'> +5.0596877e+02 </wgt>
<wgt id='88'> +4.9809395e+02 </wgt>
<wgt id='89'> +4.8541644e+02 </wgt>
<wgt id='90'> +5.0262463e+02 </wgt>
<wgt id='91'> +4.8787334e+02 </wgt>
<wgt id='92'> +4.6919060e+02 </wgt>
<wgt id='93'> +5.0542086e+02 </wgt>
<wgt id='94'> +4.8030637e+02 </wgt>
<wgt id='95'> +5.1578715e+02 </wgt>
<wgt id='96'> +5.2998787e+02 </wgt>
<wgt id='97'> +4.8377578e+02 </wgt>
<wgt id='98'> +5.1066719e+02 </wgt>
<wgt id='99'> +4.6049322e+02 </wgt>
<wgt id='100'> +4.4010484e+02 </wgt>
<wgt id='101'> +5.6928984e+02 </wgt>
<wgt id='102'> +5.3915794e+02 </wgt>
<wgt id='103'> +5.2053206e+02 </wgt>
<wgt id='104'> +5.1849455e+02 </wgt>
<wgt id='105'> +5.2004704e+02 </wgt>
<wgt id='106'> +4.7384261e+02 </wgt>
<wgt id='107'> +4.8124166e+02 </wgt>
<wgt id='108'> +4.5790449e+02 </wgt>
<wgt id='109'> +4.8790164e+02 </wgt>
<wgt id='110'> +4.8945308e+02 </wgt>
<wgt id='111'> +4.9329147e+02 </wgt>
<wgt id='112'> +4.9672604e+02 </wgt>
<wgt id='113'> +4.9022825e+02 </wgt>
<wgt id='114'> +5.0596341e+02 </wgt>
<wgt id='115'> +4.6947121e+02 </wgt>
<wgt id='116'> +5.3339409e+02 </wgt>
<wgt id='117'> +4.9441368e+02 </wgt>
<wgt id='118'> +5.2717005e+02 </wgt>
<wgt id='119'> +5.1565173e+02 </wgt>
<wgt id='120'> +4.9875254e+02 </wgt>
<wgt id='121'> +5.0183566e+02 </wgt>
<wgt id='122'> +4.9905726e+02 </wgt>
<wgt id='123'> +4.9858602e+02 </wgt>
<wgt id='124'> +5.6278088e+02 </wgt>
<wgt id='125'> +5.8507881e+02 </wgt>
<wgt id='126'> +5.0907705e+02 </wgt>
<wgt id='127'> +5.0524015e+02 </wgt>
<wgt id='128'> +4.6708094e+02 </wgt>
<wgt id='129'> +5.4499655e+02 </wgt>
<wgt id='130'> +4.8914322e+02 </wgt>
<wgt id='131'> +5.0169469e+02 </wgt>
<wgt id='132'> +5.4474598e+02 </wgt>
<wgt id='133'> +5.3140013e+02 </wgt>
<wgt id='134'> +5.0830719e+02 </wgt>
<wgt id='135'> +5.0042407e+02 </wgt>
<wgt id='136'> +5.5474243e+02 </wgt>
<wgt id='137'> +4.9762535e+02 </wgt>
<wgt id='138'> +4.8949416e+02 </wgt>
<wgt id='139'> +5.2025204e+02 </wgt>
<wgt id='140'> +5.0614699e+02 </wgt>
<wgt id='141'> +5.3126861e+02 </wgt>
<wgt id='142'> +4.3453493e+02 </wgt>
<wgt id='143'> +5.1948808e+02 </wgt>
<wgt id='144'> +4.8267128e+02 </wgt>
<wgt id='145'> +4.8718837e+02 </wgt>
</rwgt>
</event>
<event>
 4      1 +5.0481800e+02 1.87700700e+02 7.54677100e-03 1.16055200e-01
       21 -1    0    0  503  502 +0.0000000000e+00 +0.0000000000e+00 +5.8888687288e+01 5.8888687288e+01 0.0000000000e+00 0.0000e+00 1.0000e+00
       21 -1    0    0  501  503 -0.0000000000e+00 -0.0000000000e+00 -1.3324683186e+03 1.3324683186e+03 0.0000000000e+00 0.0000e+00 -1.0000e+00
        6  1    1    2  501    0 +7.1214052756e+01 +1.5202630990e+01 -1.1531891735e+03 1.1683650248e+03 1.7300000000e+02 0.0000e+00 -1.0000e+00
       -6  1    1    2    0  502 -7.1214052756e+01 -1.5202630990e+01 -1.2039045782e+02 2.2299198110e+02 1.7300000000e+02 0.0000e+00 1.0000e+00
<mgrwt>
<rscale>  2 0.18770072E+03</rscale>
<asrwt>0</asrwt>
<pdfrwt beam="1">  1       21 0.90597983E-02 0.18770072E+03</pdfrwt>
<pdfrwt beam="2">  1       21 0.20499512E+00 0.18770072E+03</pdfrwt>
<totfact> 0.12097342E+04</totfact>
</mgrwt>
<rwgt>
<wgt id='1'> +6.8588108e+02 </wgt>
<wgt id='2'> +6.8366460e+02 </wgt>
<wgt id='3'> +5.0481800e+02 </wgt>
<wgt id='4'> +6.8588108e+02 </wgt>
<wgt id='5'> +4.2681671e+02 </wgt>
<wgt id='6'> +6.2023339e+02 </wgt>
<wgt id='7'> +6.1815143e+02 </wgt>
<wgt id='8'> +4.5048124e+02 </wgt>
<wgt id='9'> +6.2023339e+02 </wgt>
<wgt id='10'> +3.8160555e+02 </wgt>
<wgt id='11'> +5.5347374e+02 </wgt>
<wgt id='12'> +5.5160639e+02 </wgt>
<wgt id='13'> +4.0343532e+02 </wgt>
<wgt id='14'> +5.5347374e+02 </wgt>
<wgt id='15'> +3.4257157e+02 </wgt>
<wgt id='16'> +5.5824972e+02 </wgt>
<wgt id='17'> +5.5662856e+02 </wgt>
<wgt id='18'> +4.2469178e+02 </wgt>
<wgt id='19'> +5.5824972e+02 </wgt>
<wgt id='20'> +3.6210023e+02 </wgt>
<wgt id='21'> +5.0328881e+02 </wgt>
<wgt id='22'> +3.7897951e+02 </wgt>
<wgt id='23'> +5.0481800e+02 </wgt>
<wgt id='24'> +3.2374426e+02 </wgt>
<wgt id='25'> +4.5048124e+02 </wgt>
<wgt id='26'> +4.4910892e+02 </wgt>
<wgt id='27'> +3.3940086e+02 </wgt>
<wgt id='28'> +4.5048124e+02 </wgt>
<wgt id='29'> +2.9062884e+02 </wgt>
<wgt id='30'> +4.6964266e+02 </wgt>
<wgt id='31'> +4.6837538e+02 </wgt>
<wgt id='32'> +3.6229107e+02 </wgt>
<wgt id='33'> +4.6964265e+02 </wgt>
<wgt id='34'> +3.1105873e+02 </wgt>
<wgt id='35'> +4.2469178e+02 </wgt>
<wgt id='36'> +4.2349262e+02 </wgt>
<wgt id='37'> +3.2329539e+02 </wgt>
<wgt id='38'> +4.2469178e+02 </wgt>
<wgt id='39'> +2.7810940e+02 </wgt>
<wgt id='40'> +3.7897951e+02 </wgt>
<wgt id='41'> +3.7790292e+02 </wgt>
<wgt id='42'> +2.8953209e+02 </wgt>
<wgt id='43'> +3.7897951e+02 </wgt>
<wgt id='44'> +2.4966192e+02 </wgt>
<wgt id='45'> +5.0481800e+02 </wgt>
<wgt id='46'> +5.1815097e+02 </wgt>
<wgt id='47'> +5.2777392e+02 </wgt>
<wgt id='48'> +5.0374028e+02 </wgt>
<wgt id='49'> +4.6296506e+02 </wgt>
<wgt id='50'> +5.9696170e+02 </wgt>
<wgt id='51'> +4.7358667e+02 </wgt>
<wgt id='52'> +4.6729849e+02 </wgt>
<wgt id='53'> +5.1058539e+02 </wgt>
<wgt id='54'> +5.3737366e+02 </wgt>
<wgt id='55'> +5.6746979e+02 </wgt>
<wgt id='56'> +4.8274670e+02 </wgt>
<wgt id='57'> +5.3704423e+02 </wgt>
<wgt id='58'> +4.5463070e+02 </wgt>
<wgt id='59'> +5.4784669e+02 </wgt>
<wgt id='60'> +5.0039312e+02 </wgt>
<wgt id='61'> +4.3627777e+02 </wgt>
<wgt id='62'> +4.6198150e+02 </wgt>
<wgt id='63'> +5.3364538e+02 </wgt>
<wgt id='64'> +5.0557767e+02 </wgt>
<wgt id='65'> +4.6238984e+02 </wgt>
<wgt id='66'> +5.1207227e+02 </wgt>
<wgt id='67'> +5.0874861e+02 </wgt>
<wgt id='68'> +6.2144212e+02 </wgt>
<wgt id='69'> +5.5055097e+02 </wgt>
<wgt id='70'> +5.4996153e+02 </wgt>
<wgt id='71'> +4.6750078e+02 </wgt>
<wgt id='72'> +4.5826807e+02 </wgt>
<wgt id='73'> +4.5462066e+02 </wgt>
<wgt id='74'> +5.8512944e+02 </wgt>
<wgt id='75'> +5.5549177e+02 </wgt>
<wgt id='76'> +5.1925528e+02 </wgt>
<wgt id='77'> +4.7313339e+02 </wgt>
<wgt id='78'> +4.3287486e+02 </wgt>
<wgt id='79'> +5.4226199e+02 </wgt>
<wgt id='80'> +4.4405901e+02 </wgt>
<wgt id='81'> +5.2568276e+02 </wgt>
<wgt id='82'> +4.9783361e+02 </wgt>
<wgt id='83'> +4.9923990e+02 </wgt>
<wgt id='84'> +4.9370048e+02 </wgt>
<wgt id='85'> +4.5441685e+02 </wgt>
<wgt id='86'> +5.3284732e+02 </wgt>
<wgt id='87'> +4.9634061e+02 </wgt>
<wgt id='88'> +4.9485788e+02 </wgt>
<wgt id='89'> +4.2276164e+02 </wgt>
<wgt id='90'> +4.6602946e+02 </wgt>
<wgt id='91'> +4.3732269e+02 </wgt>
<wgt id='92'> +4.7241421e+02 </wgt>
<wgt id='93'> +5.1053782e+02 </wgt>
<wgt id='94'> +4.6206151e+02 </wgt>
<wgt id='95'> +5.2984905e+02 </wgt>
<wgt id='96'> +5.3128093e+02 </wgt>
<wgt id='97'> +4.5558770e+02 </wgt>
<wgt id='98'> +5.4710564e+02 </wgt>
<wgt id='99'> +4.1939846e+02 </wgt>
<wgt id='100'> +3.8069829e+02 </wgt>
<wgt id='101'> +5.9053272e+02 </wgt>
<wgt id='102'> +5.6866001e+02 </wgt>
<wgt id='103'> +4.7990737e+02 </wgt>
<wgt id='104'> +5.4364731e+02 </wgt>
<wgt id='105'> +5.1755984e+02 </wgt>
<wgt id='106'> +4.9101115e+02 </wgt>
<wgt id='107'> +4.9051485e+02 </wgt>
<wgt id='108'> +4.7104922e+02 </wgt>
<wgt id='109'> +4.9830019e+02 </wgt>
<wgt id='110'> +4.6026654e+02 </wgt>
<wgt id='111'> +4.8915963e+02 </wgt>
<wgt id='112'> +5.2660512e+02 </wgt>
<wgt id='113'> +5.3410508e+02 </wgt>
<wgt id='114'> +5.2511975e+02 </wgt>
<wgt id='115'> +4.6470824e+02 </wgt>
<wgt id='116'> +5.5598967e+02 </wgt>
<wgt id='117'> +4.9607352e+02 </wgt>
<wgt id='118'> +5.1881667e+02 </wgt>
<wgt id='119'> +5.5565128e+02 </wgt>
<wgt id='120'> +5.0570066e+02 </wgt>
<wgt id='121'> +4.9333464e+02 </wgt>
<wgt id='122'> +4.9245119e+02 </wgt>
<wgt id='123'> +4.7970815e+02 </wgt>
<wgt id='124'> +5.7093777e+02 </wgt>
<wgt id='125'> +6.4138411e+02 </wgt>
<wgt id='126'> +4.9326251e+02 </wgt>
<wgt id='127'> +4.8089874e+02 </wgt>
<wgt id='128'> +4.8825998e+02 </wgt>
<wgt id='129'> +5.1512423e+02 </wgt>
<wgt id='130'> +4.9887143e+02 </wgt>
<wgt id='131'> +4.6275205e+02 </wgt>
<wgt id='132'> +5.5092192e+02 </wgt>
<wgt id='133'> +5.5189851e+02 </wgt>
<wgt id='134'> +5.3140140e+02 </wgt>
<wgt id='135'> +4.8174876e+02 </wgt>
<wgt id='136'> +5.9625267e+02 </wgt>
<wgt id='137'> +5.3331755e+02 </wgt>
<wgt id='138'> +5.1754988e+02 </wgt>
<wgt id='139'> +5.2055443e+02 </wgt>
<wgt id='140'> +4.9323784e+02 </wgt>
<wgt id='141'> +5.7964610e+02 </wgt>
<wgt id='142'> +3.4641592e+02 </wgt>
<wgt id='143'> +5.1615322e+02 </wgt>
<wgt id='144'> +4.5638944e+02 </wgt>
<wgt id='145'> +4.6327568e+02 </wgt>
</rwgt>
</event>
<event>
 4      1 +5.0481800e+02 1.74607700e+02 7.54677100e-03 1.17312600e-01
       21 -1    0    0  501  502 +0.0000000000e+00 +0.0000000000e+00 +4.2297261511e+01 4.2297261511e+01 0.0000000000e+00 0.0000e+00 1.0000e+00
       21 -1    0    0  502  503 -0.0000000000e+00 -0.0000000000e+00 -1.1111326890e+03 1.1111326890e+03 0.0000000000e+00 0.0000e+00 1.0000e+00
        6  1    1    2  501    0 -2.3281941999e+01 -4.0974714539e+00 -1.9259879474e+02 2.5996563971e+02 1.7300000000e+02 0.0000e+00 1.0000e+00
       -6  1    1    2    0  503 +2.3281941999e+01 +4.0974714539e+00 -8.7623663270e+02 8.9346431075e+02 1.7300000000e+02 0.0000e+00 1.0000e+00
<mgrwt>
<rscale>  2 0.17460767E+03</rscale>
<asrwt>0</asrwt>
<pdfrwt beam="1">  1       21 0.65072709E-02 0.17460767E+03</pdfrwt>
<pdfrwt beam="2">  1       21 0.17094349E+00 0.17460767E+03</pdfrwt>
<totfact> 0.36472850E+04</totfact>
</mgrwt>
<rwgt>
<wgt id='1'> +6.6822858e+02 </wgt>
<wgt id='2'> +1.1029016e+03 </wgt>
<wgt id='3'> +5.0481800e+02 </wgt>
<wgt id='4'> +6.6822858e+02 </wgt>
<wgt id='5'> +4.6416430e+02 </wgt>
<wgt id='6'> +6.2233600e+02 </wgt>
<wgt id='7'> +1.0425320e+03 </wgt>
<wgt id='8'> +4.6210363e+02 </wgt>
<wgt id='9'> +6.2233600e+02 </wgt>
<wgt id='10'> +4.2455885e+02 </wgt>
<wgt id='11'> +5.6967802e+02 </wgt>
<wgt id='12'> +9.7528641e+02 </wgt>
<wgt id='13'> +4.2309709e+02 </wgt>
<wgt id='14'> +5.6967803e+02 </wgt>
<wgt id='15'> +3.8893253e+02 </wgt>
<wgt id='16'> +5.4204451e+02 </wgt>
<wgt id='17'> +8.5552374e+02 </wgt>
<wgt id='18'> +4.2372615e+02 </wgt>
<wgt id='19'> +5.4204451e+02 </wgt>
<wgt id='20'> +3.9179929e+02 </wgt>
<wgt id='21'> +8.0869488e+02 </wgt>
<wgt id='22'> +3.8787323e+02 </wgt>
<wgt id='23'> +5.0481800e+02 </wgt>
<wgt id='24'> +3.5836848e+02 </wgt>
<wgt id='25'> +4.6210362e+02 </wgt>
<wgt id='26'> +7.5653226e+02 </wgt>
<wgt id='27'> +3.5513254e+02 </wgt>
<wgt id='28'> +4.6210363e+02 </wgt>
<wgt id='29'> +3.2829644e+02 </wgt>
<wgt id='30'> +4.5497275e+02 </wgt>
<wgt id='31'> +6.8292859e+02 </wgt>
<wgt id='32'> +3.6098930e+02 </wgt>
<wgt id='33'> +4.5497275e+02 </wgt>
<wgt id='34'> +3.3509748e+02 </wgt>
<wgt id='35'> +4.2372615e+02 </wgt>
<wgt id='36'> +6.4554709e+02 </wgt>
<wgt id='37'> +3.3044477e+02 </wgt>
<wgt id='38'> +4.2372615e+02 </wgt>
<wgt id='39'> +3.0650483e+02 </wgt>
<wgt id='40'> +3.8787323e+02 </wgt>
<wgt id='41'> +6.0390786e+02 </wgt>
<wgt id='42'> +3.0255166e+02 </wgt>
<wgt id='43'> +3.8787323e+02 </wgt>
<wgt id='44'> +2.8078486e+02 </wgt>
<wgt id='45'> +5.0481800e+02 </wgt>
<wgt id='46'> +5.1897470e+02 </wgt>
<wgt id='47'> +5.1716599e+02 </wgt>
<wgt id='48'> +5.0417224e+02 </wgt>
<wgt id='49'> +4.7496881e+02 </wgt>
<wgt id='50'> +5.9064481e+02 </wgt>
<wgt id='51'> +4.7981927e+02 </wgt>
<wgt id='52'> +4.8501473e+02 </wgt>
<wgt id='53'> +5.0036514e+02 </wgt>
<wgt id='54'> +5.3053582e+02 </wgt>
<wgt id='55'> +5.4235684e+02 </wgt>
<wgt id='56'> +4.7628998e+02 </wgt>
<wgt id='57'> +5.3131798e+02 </wgt>
<wgt id='58'> +4.6932259e+02 </wgt>
<wgt id='59'> +5.4609949e+02 </wgt>
<wgt id='60'> +5.0982041e+02 </wgt>
<wgt id='61'> +4.5278569e+02 </wgt>
<wgt id='62'> +4.7502678e+02 </wgt>
<wgt id='63'> +5.2485116e+02 </wgt>
<wgt id='64'> +5.0396720e+02 </wgt>
<wgt id='65'> +4.8720292e+02 </wgt>
<wgt id='66'> +5.0555101e+02 </wgt>
<wgt id='67'> +5.0708111e+02 </wgt>
<wgt id='68'> +5.9110605e+02 </wgt>
<wgt id='69'> +5.2882564e+02 </wgt>
<wgt id='70'> +5.2582755e+02 </wgt>
<wgt id='71'> +4.8293875e+02 </wgt>
<wgt id='72'> +4.7517329e+02 </wgt>
<wgt id='73'> +4.6634246e+02 </wgt>
<wgt id='74'> +5.6242404e+02 </wgt>
<wgt id='75'> +5.3418753e+02 </wgt>
<wgt id='76'> +5.1530825e+02 </wgt>
<wgt id='77'> +4.8612973e+02 </wgt>
<wgt id='78'> +4.4832689e+02 </wgt>
<wgt id='79'> +5.2793797e+02 </wgt>
<wgt id='80'> +4.6187861e+02 </wgt>
<wgt id='81'> +5.1299835e+02 </wgt>
<wgt id='82'> +4.8931198e+02 </wgt>
<wgt id='83'> +4.9827512e+02 </wgt>
<wgt id='84'> +5.0504624e+02 </wgt>
<wgt id='85'> +4.7261998e+02 </wgt>
<wgt id='86'> +5.2081925e+02 </wgt>
<wgt id='87'> +5.0264427e+02 </wgt>
<wgt id='88'> +4.9240869e+02 </wgt>
<wgt id='89'> +4.5891448e+02 </wgt>
<wgt id='90'> +4.8793717e+02 </wgt>
<wgt id='91'> +4.6307002e+02 </wgt>
<wgt id='92'> +4.7231399e+02 </wgt>
<wgt id='93'> +5.0778418e+02 </wgt>
<wgt id='94'> +4.7117916e+02 </wgt>
<wgt id='95'> +5.2623990e+02 </wgt>
<wgt id='96'> +5.2743667e+02 </wgt>
<wgt id='97'> +4.7005164e+02 </wgt>
<wgt id='98'> +5.2597128e+02 </wgt>
<wgt id='99'> +4.4201015e+02 </wgt>
<wgt id='100'> +4.1171481e+02 </wgt>
<wgt id='101'> +5.8014012e+02 </wgt>
<wgt id='102'> +5.5478677e+02 </wgt>
<wgt id='103'> +5.0144711e+02 </wgt>
<wgt id='104'> +5.2848922e+02 </wgt>
<wgt id='105'> +5.1911906e+02 </wgt>
<wgt id='106'> +4.8301286e+02 </wgt>
<wgt id='107'> +4.8352567e+02 </wgt>
<wgt id='108'> +4.6566481e+02 </wgt>
<wgt id='109'> +4.9515922e+02 </wgt>
<wgt id='110'> +4.7781955e+02 </wgt>
<wgt id='111'> +4.9266695e+02 </wgt>
<wgt id='112'> +5.1304839e+02 </wgt>
<wgt id='113'> +5.0993003e+02 </wgt>
<wgt id='114'> +5.1672291e+02 </wgt>
<wgt id='115'> +4.6347586e+02 </wgt>
<wgt id='116'> +5.4379303e+02 </wgt>
<wgt id='117'> +4.9273417e+02 </wgt>
<wgt id='118'> +5.2439617e+02 </wgt>
<wgt id='119'> +5.3625454e+02 </wgt>
<wgt id='120'> +5.0274324e+02 </wgt>
<wgt id='121'> +5.0217276e+02 </wgt>
<wgt id='122'> +4.9708247e+02 </wgt>
<wgt id='123'> +4.8976441e+02 </wgt>
<wgt id='124'> +5.6734351e+02 </wgt>
<wgt id='125'> +6.0924195e+02 </wgt>
<wgt id='126'> +5.0084975e+02 </wgt>
<wgt id='127'> +4.9401430e+02 </wgt>
<wgt id='128'> +4.7566420e+02 </wgt>
<wgt id='129'> +5.2998824e+02 </wgt>
<wgt id='130'> +4.8409197e+02 </wgt>
<wgt id='131'> +4.8207795e+02 </wgt>
<wgt id='132'> +5.5241954e+02 </wgt>
<wgt id='133'> +5.4216217e+02 </wgt>
<wgt id='134'> +5.2065145e+02 </wgt>
<wgt id='135'> +4.9109029e+02 </wgt>
<wgt id='136'> +5.7932913e+02 </wgt>
<wgt id='137'> +5.1137349e+02 </wgt>
<wgt id='138'> +5.0185503e+02 </wgt>
<wgt id='139'> +5.2066290e+02 </wgt>
<wgt id='140'> +4.9796280e+02 </wgt>
<wgt id='141'> +5.5078125e+02 </wgt>
<wgt id='142'> +3.9384377e+02 </wgt>
<wgt id='143'> +5.2018326e+02 </wgt>
<wgt id='144'> +4.7083042e+02 </wgt>
<wgt id='145'> +4.7453868e+02 </wgt>
</rwgt>
</event>
<event>
 4      1 +5.0481800e+02 1.94873200e+02 7.54677100e-03 1.15413800e-01
       21 -1    0    0  501  502 +0.0000000000e+00 +0.0000000000e+00 +2.3725810999e+02 2.3725810999e+02 0.0000000000e+00 0.0000e+00 1.0000e+00
       21 -1    0    0  502  503 -0.0000000000e+00 -0.0000000000e+00 -1.9598815729e+02 1.9598815729e+02 0.0000000000e+00 0.0000e+00 -1.0000e+00
        6  1    1    2  501    0 -8.9275587631e+01 -8.7426630898e+00 +1.1338341031e+02 2.2545811682e+02 1.7300000000e+02 0.0000e+00 1.0000e+00
       -6  1    1    2    0  503 +8.9275587631e+01 +8.7426630898e+00 -7.2113457617e+01 2.0778815047e+02 1.7300000000e+02 0.0000e+00 -1.0000e+00
<mgrwt>
<rscale>  2 0.19487320E+03</rscale>
<asrwt>0</asrwt>
<pdfrwt beam="1">  1       21 0.36501248E-01 0.19487320E+03</pdfrwt>
<pdfrwt beam="2">  1       21 0.30152024E-01 0.19487320E+03</pdfrwt>
<totfact> 0.76307681E+04</totfact>
</mgrwt>
<rwgt>
<wgt id='1'> +6.4694950e+02 </wgt>
<wgt id='2'> +5.5216805e+02 </wgt>
<wgt id='3'> +5.0481800e+02 </wgt>
<wgt id='4'> +6.4694950e+02 </wgt>
<wgt id='5'> +4.8747227e+02 </wgt>
<wgt id='6'> +6.1912320e+02 </wgt>
<wgt id='7'> +5.2129214e+02 </wgt>
<wgt id='8'> +4.7460394e+02 </wgt>
<wgt id='9'> +6.1912320e+02 </wgt>
<wgt id='10'> +4.5819351e+02 </wgt>
<wgt id='11'> +5.8206782e+02 </wgt>
<wgt id='12'> +4.8986450e+02 </wgt>
<wgt id='13'> +4.4594386e+02 </wgt>
<wgt id='14'> +5.8206782e+02 </wgt>
<wgt id='15'> +4.3052014e+02 </wgt>
<wgt id='16'> +5.2750689e+02 </wgt>
<wgt id='17'> +4.6071536e+02 </wgt>
<wgt id='18'> +4.2513993e+02 </wgt>
<wgt id='19'> +5.2750689e+02 </wgt>
<wgt id='20'> +4.1143240e+02 </wgt>
<wgt id='21'> +4.3495326e+02 </wgt>
<wgt id='22'> +3.9969472e+02 </wgt>
<wgt id='23'> +5.0481800e+02 </wgt>
<wgt id='24'> +3.8672078e+02 </wgt>
<wgt id='25'> +4.7460394e+02 </wgt>
<wgt id='26'> +4.0873082e+02 </wgt>
<wgt id='27'> +3.7555821e+02 </wgt>
<wgt id='28'> +4.7460394e+02 </wgt>
<wgt id='29'> +3.6336412e+02 </wgt>
<wgt id='30'> +4.4424772e+02 </wgt>
<wgt id='31'> +3.9142353e+02 </wgt>
<wgt id='32'> +3.6292003e+02 </wgt>
<wgt id='33'> +4.4424772e+02 </wgt>
<wgt id='34'> +3.5185637e+02 </wgt>
<wgt id='35'> +4.2513993e+02 </wgt>
<wgt id='36'> +3.6953607e+02 </wgt>
<wgt id='37'> +3.4119877e+02 </wgt>
<wgt id='38'> +4.2513993e+02 </wgt>
<wgt id='39'> +3.3072303e+02 </wgt>
<wgt id='40'> +3.9969472e+02 </wgt>
<wgt id='41'> +3.4725749e+02 </wgt>
<wgt id='42'> +3.2059467e+02 </wgt>
<wgt id='43'> +3.9969472e+02 </wgt>
<wgt id='44'> +3.1074844e+02 </wgt>
<wgt id='45'> +5.0481800e+02 </wgt>
<wgt id='46'> +5.0304364e+02 </wgt>
<wgt id='47'> +5.2245727e+02 </wgt>
<wgt id='48'> +5.0545864e+02 </wgt>
<wgt id='49'> +5.0425274e+02 </wgt>
<wgt id='50'> +5.8573531e+02 </wgt>
<wgt id='51'> +4.9515970e+02 </wgt>
<wgt id='52'> +5.0128681e+02 </wgt>
<wgt id='53'> +5.1283562e+02 </wgt>
<wgt id='54'> +5.0758856e+02 </wgt>
<wgt id='55'> +4.4946438e+02 </wgt>
<wgt id='56'> +4.7156770e+02 </wgt>
<wgt id='57'> +4.9020916e+02 </wgt>
<wgt id='58'> +5.0993186e+02 </wgt>
<wgt id='59'> +4.9414222e+02 </wgt>
<wgt id='60'> +4.8130555e+02 </wgt>
<wgt id='61'> +4.9723683e+02 </wgt>
<wgt id='62'> +4.9812328e+02 </wgt>
<wgt id='63'> +5.0525773e+02 </wgt>
<wgt id='64'> +5.0184060e+02 </wgt>
<wgt id='65'> +5.9854714e+02 </wgt>
<wgt id='66'> +4.9240027e+02 </wgt>
<wgt id='67'> +5.0946491e+02 </wgt>
<wgt id='68'> +5.3835765e+02 </wgt>
<wgt id='69'> +4.9053819e+02 </wgt>
<wgt id='70'> +4.9654645e+02 </wgt>
<wgt id='71'> +5.1456773e+02 </wgt>
<wgt id='72'> +4.9271989e+02 </wgt>
<wgt id='73'> +4.9914263e+02 </wgt>
<wgt id='74'> +5.1774924e+02 </wgt>
<wgt id='75'> +5.1585195e+02 </wgt>
<wgt id='76'> +4.8968606e+02 </wgt>
<wgt id='77'> +4.8476883e+02 </wgt>
<wgt id='78'> +5.0803897e+02 </wgt>
<wgt id='79'> +4.8237090e+02 </wgt>
<wgt id='80'> +5.0148790e+02 </wgt>
<wgt id='81'> +4.9596837e+02 </wgt>
<wgt id='82'> +5.2062394e+02 </wgt>
<wgt id='83'> +5.1517024e+02 </wgt>
<wgt id='84'> +5.5498069e+02 </wgt>
<wgt id='85'> +5.3258452e+02 </wgt>
<wgt id='86'> +5.0053862e+02 </wgt>
<wgt id='87'> +5.0410501e+02 </wgt>
<wgt id='88'> +5.1383421e+02 </wgt>
<wgt id='89'> +5.1632876e+02 </wgt>
<wgt id='90'> +5.0943929e+02 </wgt>
<wgt id='91'> +5.3887669e+02 </wgt>
<wgt id='92'> +4.6630016e+02 </wgt>
<wgt id='93'> +4.9503993e+02 </wgt>
<wgt id='94'> +5.0355870e+02 </wgt>
<wgt id='95'> +4.8367122e+02 </wgt>
<wgt id='96'> +5.4457556e+02 </wgt>
<wgt id='97'> +5.1422624e+02 </wgt>
<wgt id='98'> +4.8040087e+02 </wgt>
<wgt id='99'> +4.9118884e+02 </wgt>
<wgt id='100'> +5.0465309e+02 </wgt>
<wgt id='101'> +5.2598398e+02 </wgt>
<wgt id='102'> +4.8627008e+02 </wgt>
<wgt id='103'> +5.4750345e+02 </wgt>
<wgt id='104'> +5.0322927e+02 </wgt>
<wgt id='105'> +5.2578260e+02 </wgt>
<wgt id='106'> +4.6640359e+02 </wgt>
<wgt id='107'> +5.0177973e+02 </wgt>
<wgt id='108'> +4.5472961e+02 </wgt>
<wgt id='109'> +4.7536211e+02 </wgt>
<wgt id='110'> +5.0633422e+02 </wgt>
<wgt id='111'> +4.9235743e+02 </wgt>
<wgt id='112'> +4.8339729e+02 </wgt>
<wgt id='113'> +4.6406665e+02 </wgt>
<wgt id='114'> +5.0660625e+02 </wgt>
<wgt id='115'> +5.1049163e+02 </wgt>
<wgt id='116'> +5.0152836e+02 </wgt>
<wgt id='117'> +5.1345747e+02 </wgt>
<wgt id='118'> +5.1511977e+02 </wgt>
<wgt id='119'> +4.8532083e+02 </wgt>
<wgt id='120'> +5.0590290e+02 </wgt>
<wgt id='121'> +4.9079200e+02 </wgt>
<wgt id='122'> +4.9838492e+02 </wgt>
<wgt id='123'> +5.1129207e+02 </wgt>
<wgt id='124'> +5.3562350e+02 </wgt>
<wgt id='125'> +5.3694750e+02 </wgt>
<wgt id='126'> +5.2393205e+02 </wgt>
<wgt id='127'> +5.1923037e+02 </wgt>
<wgt id='128'> +4.7084268e+02 </wgt>
<wgt id='129'> +5.7137482e+02 </wgt>
<wgt id='130'> +5.0932924e+02 </wgt>
<wgt id='131'> +5.4184220e+02 </wgt>
<wgt id='132'> +4.9552306e+02 </wgt>
<wgt id='133'> +4.9887317e+02 </wgt>
<wgt id='134'> +4.7321071e+02 </wgt>
<wgt id='135'> +5.1817875e+02 </wgt>
<wgt id='136'> +4.8023167e+02 </wgt>
<wgt id='137'> +4.7442174e+02 </wgt>
<wgt id='138'> +4.5681000e+02 </wgt>
<wgt id='139'> +5.1337245e+02 </wgt>
<wgt id='140'> +5.3878839e+02 </wgt>
<wgt id='141'> +5.0324730e+02 </wgt>
<wgt id='142'> +5.1205104e+02 </wgt>
<wgt id='143'> +4.9832407e+02 </wgt>
<wgt id='144'> +5.0573895e+02 </wgt>
<wgt id='145'> +5.0603270e+02 </wgt>
</rwgt>
</event>
<event>
 4      1 +5.0481800e+02 2.12829700e+02 7.54677100e-03 1.13934500e-01
       21 -1    0    0  503  502 +0.0000000000e+00 +0.0000000000e+00 +9.4587587969e+02 9.4587587969e+02 0.0000000000e+00 0.0000e+00 1.0000e+00
       21 -1    0    0  501  503 -0.0000000000e+00 -0.0000000000e+00 -7.7496264452e+02 7.7496264452e+02 0.0000000000e+00 0.0000e+00 1.0000e+00
        6  1    1    2  501    0 -8.7874708507e+01 +8.7438609693e+01 -7.4795417977e+02 7.7764511822e+02 1.7300000000e+02 0.0000e+00 1.0000e+00
       -6  1    1    2    0  502 +8.7874708507e+01 -8.7438609693e+01 +9.1886741494e+02 9.4319340599e+02 1.7300000000e+02 0.0000e+00 1.0000e+00
<mgrwt>
<rscale>  2 0.21282969E+03</rscale>
<asrwt>0</asrwt>
<pdfrwt beam="1">  1       21 0.14551937E+00 0.21282969E+03</pdfrwt>
<pdfrwt beam="2">  1       21 0.11922502E+00 0.21282969E+03</pdfrwt>
<totfact> 0.16933352E+02</totfact>
</mgrwt>
<rwgt>
<wgt id='1'> +7.3027988e+02 </wgt>
<wgt id='2'> +6.6377596e+02 </wgt>
<wgt id='3'> +5.0481801e+02 </wgt>
<wgt id='4'> +7.3027989e+02 </wgt>
<wgt id='5'> +2.5974190e+02 </wgt>
<wgt id='6'> +6.1615153e+02 </wgt>
<wgt id='7'> +5.5888710e+02 </wgt>
<wgt id='8'> +4.2475903e+02 </wgt>
<wgt id='9'> +6.1615154e+02 </wgt>
<wgt id='10'> +2.2273003e+02 </wgt>
<wgt id='11'> +5.1843619e+02 </wgt>
<wgt id='12'> +4.7149776e+02 </wgt>
<wgt id='13'> +3.6093837e+02 </wgt>
<wgt id='14'> +5.1843620e+02 </wgt>
<wgt id='15'> +1.9258660e+02 </wgt>
<wgt id='16'> +5.9832429e+02 </wgt>
<wgt id='17'> +5.4890821e+02 </wgt>
<wgt id='18'> +4.2596668e+02 </wgt>
<wgt id='19'> +5.9832430e+02 </wgt>
<wgt id='20'> +2.2464081e+02 </wgt>
<wgt id='21'> +4.6217057e+02 </wgt>
<wgt id='22'> +3.5841272e+02 </wgt>
<wgt id='23'> +5.0481801e+02 </wgt>
<wgt id='24'> +1.9263066e+02 </wgt>
<wgt id='25'> +4.2475902e+02 </wgt>
<wgt id='26'> +3.8990413e+02 </wgt>
<wgt id='27'> +3.0456069e+02 </wgt>
<wgt id='28'> +4.2475903e+02 </wgt>
<wgt id='29'> +1.6656077e+02 </wgt>
<wgt id='30'> +5.0486751e+02 </wgt>
<wgt id='31'> +4.6475258e+02 </wgt>
<wgt id='32'> +3.6420190e+02 </wgt>
<wgt id='33'> +5.0486752e+02 </wgt>
<wgt id='34'> +1.9620221e+02 </wgt>
<wgt id='35'> +4.2596667e+02 </wgt>
<wgt id='36'> +3.9131308e+02 </wgt>
<wgt id='37'> +3.0644320e+02 </wgt>
<wgt id='38'> +4.2596668e+02 </wgt>
<wgt id='39'> +1.6824442e+02 </wgt>
<wgt id='40'> +3.5841271e+02 </wgt>
<wgt id='41'> +3.3012614e+02 </wgt>
<wgt id='42'> +2.6039967e+02 </wgt>
<wgt id='43'> +3.5841272e+02 </wgt>
<wgt id='44'> +1.4547487e+02 </wgt>
<wgt id='45'> +5.0481800e+02 </wgt>
<wgt id='46'> +5.4733079e+02 </wgt>
<wgt id='47'> +5.3166568e+02 </wgt>
<wgt id='48'> +5.1901968e+02 </wgt>
<wgt id='49'> +4.6955190e+02 </wgt>
<wgt id='50'> +6.8522933e+02 </wgt>
<wgt id='51'> +4.7707011e+02 </wgt>
<wgt id='52'> +4.9279827e+02 </wgt>
<wgt id='53'> +4.7979755e+02 </wgt>
<wgt id='54'> +5.3560609e+02 </wgt>
<wgt id='55'> +5.3972751e+02 </wgt>
<wgt id='56'> +4.3905127e+02 </wgt>
<wgt id='57'> +5.3856504e+02 </wgt>
<wgt id='58'> +4.4304158e+02 </wgt>
<wgt id='59'> +5.8474760e+02 </wgt>
<wgt id='60'> +5.3332197e+02 </wgt>
<wgt id='61'> +3.7848816e+02 </wgt>
<wgt id='62'> +4.7776576e+02 </wgt>
<wgt id='63'> +5.2313970e+02 </wgt>
<wgt id='64'> +4.8255769e+02 </wgt>
<wgt id='65'> +4.9692343e+02 </wgt>
<wgt id='66'> +5.0842379e+02 </wgt>
<wgt id='67'> +5.0550580e+02 </wgt>
<wgt id='68'> +6.2991347e+02 </wgt>
<wgt id='69'> +5.6317421e+02 </wgt>
<wgt id='70'> +5.1492937e+02 </wgt>
<wgt id='71'> +4.8398766e+02 </wgt>
<wgt id='72'> +4.3638158e+02 </wgt>
<wgt id='73'> +4.4922139e+02 </wgt>
<wgt id='74'> +5.9555644e+02 </wgt>
<wgt id='75'> +5.3915237e+02 </wgt>
<wgt id='76'> +5.1216506e+02 </wgt>
<wgt id='77'> +5.0133941e+02 </wgt>
<wgt id='78'> +4.1928955e+02 </wgt>
<wgt id='79'> +5.4202527e+02 </wgt>
<wgt id='80'> +4.5073425e+02 </wgt>
<wgt id='81'> +4.9881976e+02 </wgt>
<wgt id='82'> +4.6151632e+02 </wgt>
<wgt id='83'> +5.1132125e+02 </wgt>
<wgt id='84'> +5.2362217e+02 </wgt>
<wgt id='85'> +4.7093003e+02 </wgt>
<wgt id='86'> +5.3640792e+02 </wgt>
<wgt id='87'> +5.1290885e+02 </wgt>
<wgt id='88'> +4.9957753e+02 </wgt>
<wgt id='89'> +4.7190920e+02 </wgt>
<wgt id='90'> +5.0142100e+02 </wgt>
<wgt id='91'> +4.5671401e+02 </wgt>
<wgt id='92'> +4.2435083e+02 </wgt>
<wgt id='93'> +5.2051051e+02 </wgt>
<wgt id='94'> +4.4986861e+02 </wgt>
<wgt id='95'> +5.2343374e+02 </wgt>
<wgt id='96'> +5.5880347e+02 </wgt>
<wgt id='97'> +4.5531432e+02 </wgt>
<wgt id='98'> +5.3278078e+02 </wgt>
<wgt id='99'> +4.2666850e+02 </wgt>
<wgt id='100'> +3.7047589e+02 </wgt>
<wgt id='101'> +6.5161977e+02 </wgt>
<wgt id='102'> +6.1341294e+02 </wgt>
<wgt id='103'> +5.2610012e+02 </wgt>
<wgt id='104'> +5.4501765e+02 </wgt>
<wgt id='105'> +5.0624504e+02 </wgt>
<wgt id='106'> +4.3756662e+02 </wgt>
<wgt id='107'> +4.3694733e+02 </wgt>
<wgt id='108'> +4.1950787e+02 </wgt>
<wgt id='109'> +4.6970243e+02 </wgt>
<wgt id='110'> +4.6846471e+02 </wgt>
<wgt id='111'> +4.8060377e+02 </wgt>
<wgt id='112'> +4.8537160e+02 </wgt>
<wgt id='113'> +4.8278348e+02 </wgt>
<wgt id='114'> +4.7905358e+02 </wgt>
<wgt id='115'> +4.2412546e+02 </wgt>
<wgt id='116'> +5.9053515e+02 </wgt>
<wgt id='117'> +4.7650048e+02 </wgt>
<wgt id='118'> +5.6512968e+02 </wgt>
<wgt id='119'> +5.2223108e+02 </wgt>
<wgt id='120'> +4.8387406e+02 </wgt>
<wgt id='121'> +4.9347100e+02 </wgt>
<wgt id='122'> +4.9358964e+02 </wgt>
<wgt id='123'> +5.0136858e+02 </wgt>
<wgt id='124'> +6.2783007e+02 </wgt>
<wgt id='125'> +6.6674002e+02 </wgt>
<wgt id='126'> +5.1555482e+02 </wgt>
<wgt id='127'> +5.0788349e+02 </wgt>
<wgt id='128'> +4.4557111e+02 </wgt>
<wgt id='129'> +5.5141888e+02 </wgt>
<wgt id='130'> +4.8822675e+02 </wgt>
<wgt id='131'> +4.8123141e+02 </wgt>
<wgt id='132'> +5.9480471e+02 </wgt>
<wgt id='133'> +5.7689343e+02 </wgt>
<wgt id='134'> +5.2721802e+02 </wgt>
<wgt id='135'> +4.9045202e+02 </wgt>
<wgt id='136'> +6.2137801e+02 </wgt>
<wgt id='137'> +5.1931650e+02 </wgt>
<wgt id='138'> +5.3501090e+02 </wgt>
<wgt id='139'> +5.3640609e+02 </wgt>
<wgt id='140'> +4.8209997e+02 </wgt>
<wgt id='141'> +5.6264467e+02 </wgt>
<wgt id='142'> +3.6708300e+02 </wgt>
<wgt id='143'> +5.3879351e+02 </wgt>
<wgt id='144'> +4.4971189e+02 </wgt>
<wgt id='145'> +4.7462392e+02 </wgt>
</rwgt>
</event>
<event>
 4      1 +5.0481800e+02 1.82987100e+02 7.54677100e-03 1.16494300e-01
       21 -1    0    0  503  502 +0.0000000000e+00 +0.0000000000e+00 +7.0343675339e+01 7.0343675339e+01 0.0000000000e+00 0.0000e+00 1.0000e+00
       21 -1    0    0  501  503 -0.0000000000e+00 -0.0000000000e+00 -6.6289667647e+02 6.6289667647e+02 0.0000000000e+00 0.0000e+00 1.0000e+00
        6  1    1    2  501    0 -3.6943609445e+01 -4.6802089305e+01 -4.9093934181e+02 5.2393291859e+02 1.7300000000e+02 0.0000e+00 1.0000e+00
       -6  1    1    2    0  502 +3.6943609445e+01 +4.6802089305e+01 -1.0161365933e+02 2.0930743323e+02 1.7300000000e+02 0.0000e+00 1.0000e+00
<mgrwt>
<rscale>  2 0.18298706E+03</rscale>
<asrwt>0</asrwt>
<pdfrwt beam="1">  1       21 0.10822104E-01 0.18298706E+03</pdfrwt>
<pdfrwt beam="2">  1       21 0.10198410E+00 0.18298706E+03</pdfrwt>
<totfact> 0.55528785E+04</totfact>
</mgrwt>
<rwgt>
<wgt id='1'> +6.5423737e+02 </wgt>
<wgt id='2'> +6.7461088e+02 </wgt>
<wgt id='3'> +5.0481800e+02 </wgt>
<wgt id='4'> +6.5423736e+02 </wgt>
<wgt id='5'> +4.7559847e+02 </wgt>
<wgt id='6'> +6.2093377e+02 </wgt>
<wgt id='7'> +6.4136439e+02 </wgt>
<wgt id='8'> +4.7044470e+02 </wgt>
<wgt id='9'> +6.2093376e+02 </wgt>
<wgt id='10'> +4.4291813e+02 </wgt>
<wgt id='11'> +5.7865409e+02 </wgt>
<wgt id='12'> +5.9830822e+02 </wgt>
<wgt id='13'> +4.3814929e+02 </wgt>
<wgt id='14'> +5.7865409e+02 </wgt>
<wgt id='15'> +4.1255397e+02 </wgt>
<wgt id='16'> +5.3189376e+02 </wgt>
<wgt id='17'> +5.4645073e+02 </wgt>
<wgt id='18'> +4.2436829e+02 </wgt>
<wgt id='19'> +5.3189376e+02 </wgt>
<wgt id='20'> +4.0142135e+02 </wgt>
<wgt id='21'> +5.1952030e+02 </wgt>
<wgt id='22'> +3.9547285e+02 </wgt>
<wgt id='23'> +5.0481800e+02 </wgt>
<wgt id='24'> +3.7383802e+02 </wgt>
<wgt id='25'> +4.7044470e+02 </wgt>
<wgt id='26'> +4.8464378e+02 </wgt>
<wgt id='27'> +3.6832416e+02 </wgt>
<wgt id='28'> +4.7044470e+02 </wgt>
<wgt id='29'> +3.4820964e+02 </wgt>
<wgt id='30'> +4.4712916e+02 </wgt>
<wgt id='31'> +4.5815333e+02 </wgt>
<wgt id='32'> +3.6184757e+02 </wgt>
<wgt id='33'> +4.4712916e+02 </wgt>
<wgt id='34'> +3.4330340e+02 </wgt>
<wgt id='35'> +4.2436830e+02 </wgt>
<wgt id='36'> +4.3557441e+02 </wgt>
<wgt id='37'> +3.3720920e+02 </wgt>
<wgt id='38'> +4.2436829e+02 </wgt>
<wgt id='39'> +3.1971360e+02 </wgt>
<wgt id='40'> +3.9547286e+02 </wgt>
<wgt id='41'> +4.0633336e+02 </wgt>
<wgt id='42'> +3.1406023e+02 </wgt>
<wgt id='43'> +3.9547285e+02 </wgt>
<wgt id='44'> +2.9779570e+02 </wgt>
<wgt id='45'> +5.0481800e+02 </wgt>
<wgt id='46'> +5.1421983e+02 </wgt>
<wgt id='47'> +5.1863979e+02 </wgt>
<wgt id='48'> +5.0681276e+02 </wgt>
<wgt id='49'> +4.9578621e+02 </wgt>
<wgt id='50'> +5.9413825e+02 </wgt>
<wgt id='51'> +4.9166599e+02 </wgt>
<wgt id='52'> +5.0293926e+02 </wgt>
<wgt id='53'> +4.9925533e+02 </wgt>
<wgt id='54'> +5.1382376e+02 </wgt>
<wgt id='55'> +4.8233376e+02 </wgt>
<wgt id='56'> +4.6425101e+02 </wgt>
<wgt id='57'> +5.0823545e+02 </wgt>
<wgt id='58'> +4.9475789e+02 </wgt>
<wgt id='59'> +5.2325013e+02 </wgt>
<wgt id='60'> +5.0346829e+02 </wgt>
<wgt id='61'> +4.4835658e+02 </wgt>
<wgt id='62'> +4.9381506e+02 </wgt>
<wgt id='63'> +5.0816508e+02 </wgt>
<wgt id='64'> +4.9724064e+02 </wgt>
<wgt id='65'> +5.5467525e+02 </wgt>
<wgt id='66'> +4.9638788e+02 </wgt>
<wgt id='67'> +5.0762493e+02 </wgt>
<wgt id='68'> +5.5546798e+02 </wgt>
<wgt id='69'> +5.0291215e+02 </wgt>
<wgt id='70'> +5.0040402e+02 </wgt>
<wgt id='71'> +5.0800378e+02 </wgt>
<wgt id='72'> +4.8817831e+02 </wgt>
<wgt id='73'> +4.8858158e+02 </wgt>
<wgt id='74'> +5.3334683e+02 </wgt>
<wgt id='75'> +5.1645003e+02 </wgt>
<wgt id='76'> +4.9996184e+02 </wgt>
<wgt id='77'> +4.9390836e+02 </wgt>
<wgt id='78'> +4.8244917e+02 </wgt>
<wgt id='79'> +5.0000961e+02 </wgt>
<wgt id='80'> +4.9015768e+02 </wgt>
<wgt id='81'> +4.9720845e+02 </wgt>
<wgt id='82'> +4.9767538e+02 </wgt>
<wgt id='83'> +5.0866784e+02 </wgt>
<wgt id='84'> +5.3763485e+02 </wgt>
<wgt id='85'> +5.1124441e+02 </wgt>
<wgt id='86'> +5.0709501e+02 </wgt>
<wgt id='87'> +5.0740866e+02 </wgt>
<wgt id='88'> +5.0540508e+02 </wgt>
<wgt id='89'> +5.0730828e+02 </wgt>
<wgt id='90'> +5.1234532e+02 </wgt>
<wgt id='91'> +5.1360374e+02 </wgt>
<wgt id='92'> +4.6556352e+02 </wgt>
<wgt id='93'> +5.0201879e+02 </wgt>
<wgt id='94'> +4.9088421e+02 </wgt>
<wgt id='95'> +5.0113826e+02 </wgt>
<wgt id='96'> +5.3682525e+02 </wgt>
<wgt id='97'> +4.9815139e+02 </wgt>
<wgt id='98'> +4.9576360e+02 </wgt>
<wgt id='99'> +4.7747472e+02 </wgt>
<wgt id='100'> +4.7011816e+02 </wgt>
<wgt id='101'> +5.5454972e+02 </wgt>
<wgt id='102'> +5.1833863e+02 </wgt>
<wgt id='103'> +5.3867937e+02 </wgt>
<wgt id='104'> +5.0936111e+02 </wgt>
<wgt id='105'> +5.2183906e+02 </wgt>
<wgt id='106'> +4.6535908e+02 </wgt>
<wgt id='107'> +4.8445574e+02 </wgt>
<wgt id='108'> +4.5052882e+02 </wgt>
<wgt id='109'> +4.7908617e+02 </wgt>
<wgt id='110'> +4.9973862e+02 </wgt>
<wgt id='111'> +4.9224582e+02 </wgt>
<wgt id='112'> +4.8261497e+02 </wgt>
<wgt id='113'> +4.7279744e+02 </wgt>
<wgt id='114'> +4.9857084e+02 </wgt>
<wgt id='115'> +4.7985857e+02 </wgt>
<wgt id='116'> +5.2068689e+02 </wgt>
<wgt id='117'> +4.9933156e+02 </wgt>
<wgt id='118'> +5.2639880e+02 </wgt>
<wgt id='119'> +4.9709967e+02 </wgt>
<wgt id='120'> +4.9448390e+02 </wgt>
<wgt id='121'> +4.9741737e+02 </wgt>
<wgt id='122'> +4.9937575e+02 </wgt>
<wgt id='123'> +5.0582959e+02 </wgt>
<wgt id='124'> +5.5512644e+02 </wgt>
<wgt id='125'> +5.6267519e+02 </wgt>
<wgt id='126'> +5.1749687e+02 </wgt>
<wgt id='127'> +5.1517496e+02 </wgt>
<wgt id='128'> +4.6161583e+02 </wgt>
<wgt id='129'> +5.6108905e+02 </wgt>
<wgt id='130'> +4.9889605e+02 </wgt>
<wgt id='131'> +5.2288558e+02 </wgt>
<wgt id='132'> +5.2952935e+02 </wgt>
<wgt id='133'> +5.1832694e+02 </wgt>
<wgt id='134'> +4.9296251e+02 </wgt>
<wgt id='135'> +5.1026657e+02 </wgt>
<wgt id='136'> +5.2345340e+02 </wgt>
<wgt id='137'> +4.8482455e+02 </wgt>
<wgt id='138'> +4.7397606e+02 </wgt>
<wgt id='139'> +5.1923479e+02 </wgt>
<wgt id='140'> +5.1870989e+02 </wgt>
<wgt id='141'> +5.1474984e+02 </wgt>
<wgt id='142'> +4.7458661e+02 </wgt>
<wgt id='143'> +5.1448738e+02 </wgt>
<wgt id='144'> +4.9451169e+02 </wgt>
<wgt id='145'> +4.9889479e+02 </wgt>
</rwgt>
</event>
<event>
 4      1 +5.0481800e+02 2.15846100e+02 7.54677100e-03 1.13701800e-01
       21 -1    0    0  503  502 +0.0000000000e+00 +0.0000000000e+00 +3.0603066887e+02 3.0603066887e+02 0.0000000000e+00 0.0000e+00 -1.0000e+00
       21 -1    0    0  501  503 -0.0000000000e+00 -0.0000000000e+00 -1.7785696844e+02 1.7785696844e+02 0.0000000000e+00 0.0000e+00 1.0000e+00
        6  1    1    2  501    0 -1.2904338525e+02 -2.8890243835e+00 -2.7737669939e+01 2.1762104694e+02 1.7300000000e+02 0.0000e+00 1.0000e+00
       -6  1    1    2    0  502 +1.2904338525e+02 +2.8890243835e+00 +1.5591137037e+02 2.6626659037e+02 1.7300000000e+02 0.0000e+00 -1.0000e+00
<mgrwt>
<rscale>  2 0.21584611E+03</rscale>
<asrwt>0</asrwt>
<pdfrwt beam="1">  1       21 0.47081641E-01 0.21584611E+03</pdfrwt>
<pdfrwt beam="2">  1       21 0.27362610E-01 0.21584611E+03</pdfrwt>
<totfact> 0.54396043E+04</totfact>
</mgrwt>
<rwgt>
<wgt id='1'> +6.4934807e+02 </wgt>
<wgt id='2'> +5.2687305e+02 </wgt>
<wgt id='3'> +5.0481800e+02 </wgt>
<wgt id='4'> +6.4934807e+02 </wgt>
<wgt id='5'> +4.9123137e+02 </wgt>
<wgt id='6'> +6.1566068e+02 </wgt>
<wgt id='7'> +4.9268846e+02 </wgt>
<wgt id='8'> +4.7193985e+02 </wgt>
<wgt id='9'> +6.1566068e+02 </wgt>
<wgt id='10'> +4.5927066e+02 </wgt>
<wgt id='11'> +5.7556348e+02 </wgt>
<wgt id='12'> +4.6064772e+02 </wgt>
<wgt id='13'> +4.4128030e+02 </wgt>
<wgt id='14'> +5.7556348e+02 </wgt>
<wgt id='15'> +4.2945938e+02 </wgt>
<wgt id='16'> +5.3244036e+02 </wgt>
<wgt id='17'> +4.4348666e+02 </wgt>
<wgt id='18'> +4.2608011e+02 </wgt>
<wgt id='19'> +5.3244036e+02 </wgt>
<wgt id='20'> +4.1523079e+02 </wgt>
<wgt id='21'> +4.1471234e+02 </wgt>
<wgt id='22'> +3.9833006e+02 </wgt>
<wgt id='23'> +5.0481800e+02 </wgt>
<wgt id='24'> +3.8821487e+02 </wgt>
<wgt id='25'> +4.7193984e+02 </wgt>
<wgt id='26'> +3.8774258e+02 </wgt>
<wgt id='27'> +3.7245256e+02 </wgt>
<wgt id='28'> +4.7193985e+02 </wgt>
<wgt id='29'> +3.6301582e+02 </wgt>
<wgt id='30'> +4.4939413e+02 </wgt>
<wgt id='31'> +3.7845415e+02 </wgt>
<wgt id='32'> +3.6438924e+02 </wgt>
<wgt id='33'> +4.4939414e+02 </wgt>
<wgt id='34'> +3.5559253e+02 </wgt>
<wgt id='35'> +4.2608011e+02 </wgt>
<wgt id='36'> +3.5389928e+02 </wgt>
<wgt id='37'> +3.4065703e+02 </wgt>
<wgt id='38'> +4.2608011e+02 </wgt>
<wgt id='39'> +3.3245682e+02 </wgt>
<wgt id='40'> +3.9833005e+02 </wgt>
<wgt id='41'> +3.3088434e+02 </wgt>
<wgt id='42'> +3.1852626e+02 </wgt>
<wgt id='43'> +3.9833006e+02 </wgt>
<wgt id='44'> +3.1087703e+02 </wgt>
<wgt id='45'> +5.0481800e+02 </wgt>
<wgt id='46'> +5.0600134e+02 </wgt>
<wgt id='47'> +5.2362494e+02 </wgt>
<wgt id='48'> +5.0711250e+02 </wgt>
<wgt id='49'> +5.0370960e+02 </wgt>
<wgt id='50'> +5.9244483e+02 </wgt>
<wgt id='51'> +4.9512656e+02 </wgt>
<wgt id='52'> +5.0206837e+02 </wgt>
<wgt id='53'> +5.1011072e+02 </wgt>
<wgt id='54'> +5.0773524e+02 </wgt>
<wgt id='55'> +4.5070106e+02 </wgt>
<wgt id='56'> +4.6857693e+02 </wgt>
<wgt id='57'> +4.9105989e+02 </wgt>
<wgt id='58'> +5.0700354e+02 </wgt>
<wgt id='59'> +4.9822287e+02 </wgt>
<wgt id='60'> +4.8496994e+02 </wgt>
<wgt id='61'> +4.8995974e+02 </wgt>
<wgt id='62'> +4.9850310e+02 </wgt>
<wgt id='63'> +5.0528835e+02 </wgt>
<wgt id='64'> +4.9913601e+02 </wgt>
<wgt id='65'> +5.9576757e+02 </wgt>
<wgt id='66'> +4.9317613e+02 </wgt>
<wgt id='67'> +5.0937202e+02 </wgt>
<wgt id='68'> +5.4195485e+02 </wgt>
<wgt id='69'> +4.9410762e+02 </wgt>
<wgt id='70'> +4.9620481e+02 </wgt>
<wgt id='71'> +5.1426288e+02 </wgt>
<wgt id='72'> +4.8823655e+02 </wgt>
<wgt id='73'> +4.9755936e+02 </wgt>
<wgt id='74'> +5.2101882e+02 </wgt>
<wgt id='75'> +5.1645172e+02 </wgt>
<wgt id='76'> +4.8962892e+02 </wgt>
<wgt id='77'> +4.8691286e+02 </wgt>
<wgt id='78'> +5.0403438e+02 </wgt>
<wgt id='79'> +4.8482444e+02 </wgt>
<wgt id='80'> +5.0010509e+02 </wgt>
<wgt id='81'> +4.9504467e+02 </wgt>
<wgt id='82'> +5.1795556e+02 </wgt>
<wgt id='83'> +5.1609901e+02 </wgt>
<wgt id='84'> +5.5538112e+02 </wgt>
<wgt id='85'> +5.3143851e+02 </wgt>
<wgt id='86'> +5.0235126e+02 </wgt>
<wgt id='87'> +5.0519130e+02 </wgt>
<wgt id='88'> +5.1415929e+02 </wgt>
<wgt id='89'> +5.1719162e+02 </wgt>
<wgt id='90'> +5.1068029e+02 </wgt>
<wgt id='91'> +5.3695341e+02 </wgt>
<wgt id='92'> +4.6208988e+02 </wgt>
<wgt id='93'> +4.9679151e+02 </wgt>
<wgt id='94'> +5.0127559e+02 </wgt>
<wgt id='95'> +4.8344232e+02 </wgt>
<wgt id='96'> +5.4727238e+02 </wgt>
<wgt id='97'> +5.1201547e+02 </wgt>
<wgt id='98'> +4.8177413e+02 </wgt>
<wgt id='99'> +4.8966070e+02 </wgt>
<wgt id='100'> +4.9897130e+02 </wgt>
<wgt id='101'> +5.3225368e+02 </wgt>
<wgt id='102'> +4.9206908e+02 </wgt>
<wgt id='103'> +5.4908385e+02 </wgt>
<wgt id='104'> +5.0474786e+02 </wgt>
<wgt id='105'> +5.2376908e+02 </wgt>
<wgt id='106'> +4.6242369e+02 </wgt>
<wgt id='107'> +4.9670546e+02 </wgt>
<wgt id='108'> +4.5068351e+02 </wgt>
<wgt id='109'> +4.7304536e+02 </wgt>
<wgt id='110'> +5.0523881e+02 </wgt>
<wgt id='111'> +4.9092730e+02 </wgt>
<wgt id='112'> +4.8082728e+02 </wgt>
<wgt id='113'> +4.6256297e+02 </wgt>
<wgt id='114'> +5.0174060e+02 </wgt>
<wgt id='115'> +5.0432597e+02 </wgt>
<wgt id='116'> +5.0605537e+02 </wgt>
<wgt id='117'> +5.1108265e+02 </wgt>
<wgt id='118'> +5.1895517e+02 </wgt>
<wgt id='119'> +4.8455082e+02 </wgt>
<wgt id='120'> +5.0206148e+02 </wgt>
<wgt id='121'> +4.8979180e+02 </wgt>
<wgt id='122'> +4.9799776e+02 </wgt>
<wgt id='123'> +5.1193137e+02 </wgt>
<wgt id='124'> +5.4068075e+02 </wgt>
<wgt id='125'> +5.4174122e+02 </wgt>
<wgt id='126'> +5.2508871e+02 </wgt>
<wgt id='127'> +5.2032475e+02 </wgt>
<wgt id='128'> +4.6809585e+02 </wgt>
<wgt id='129'> +5.7200369e+02 </wgt>
<wgt id='130'> +5.0946984e+02 </wgt>
<wgt id='131'> +5.4064099e+02 </wgt>
<wgt id='132'> +5.0001110e+02 </wgt>
<wgt id='133'> +5.0246622e+02 </wgt>
<wgt id='134'> +4.7491003e+02 </wgt>
<wgt id='135'> +5.1773395e+02 </wgt>
<wgt id='136'> +4.8438667e+02 </wgt>
<wgt id='137'> +4.7606539e+02 </wgt>
<wgt id='138'> +4.6082258e+02 </wgt>
<wgt id='139'> +5.1499712e+02 </wgt>
<wgt id='140'> +5.3603300e+02 </wgt>
<wgt id='141'> +5.0452564e+02 </wgt>
<wgt id='142'> +5.0690252e+02 </wgt>
<wgt id='143'> +5.0073202e+02 </wgt>
<wgt id='144'> +5.0342961e+02 </wgt>
<wgt id='145'> +5.0601046e+02 </wgt>
</rwgt>
</event>
<event>
 4      1 +5.0481800e+02 2.81292500e+02 7.54677100e-03 1.09498500e-01
       21 -1    0    0  501  502 +0.0000000000e+00 +0.0000000000e+00 +5.3905823616e+01 5.3905823616e+01 0.0000000000e+00 0.0000e+00 1.0000e+00
       21 -1    0    0  502  503 -0.0000000000e+00 -0.0000000000e+00 -1.4680567338e+03 1.4680567338e+03 0.0000000000e+00 0.0000e+00 -1.0000e+00
        6  1    1    2  501    0 -2.1680447125e+02 -4.6821960534e+01 -6.9796899296e+02 7.5251989334e+02 1.7300000000e+02 0.0000e+00 1.0000e+00
       -6  1    1    2    0  503 +2.1680447125e+02 +4.6821960534e+01 -7.1618191727e+02 7.6944266412e+02 1.7300000000e+02 0.0000e+00 -1.0000e+00
<mgrwt>
<rscale>  2 0.28129251E+03</rscale>
<asrwt>0</asrwt>
<pdfrwt beam="1">  1       21 0.82932036E-02 0.28129251E+03</pdfrwt>
<pdfrwt beam="2">  1       21 0.22585488E+00 0.28129251E+03</pdfrwt>
<totfact> 0.97655404E+03</totfact>
</mgrwt>
<rwgt>
<wgt id='1'> +6.8336461e+02 </wgt>
<wgt id='2'> +5.5240763e+02 </wgt>
<wgt id='3'> +5.0481800e+02 </wgt>
<wgt id='4'> +6.8336461e+02 </wgt>
<wgt id='5'> +5.0480272e+02 </wgt>
<wgt id='6'> +6.0718109e+02 </wgt>
<wgt id='7'> +4.8958625e+02 </wgt>
<wgt id='8'> +4.4804669e+02 </wgt>
<wgt id='9'> +6.0718109e+02 </wgt>
<wgt id='10'> +4.4803335e+02 </wgt>
<wgt id='11'> +5.3889813e+02 </wgt>
<wgt id='12'> +4.3598851e+02 </wgt>
<wgt id='13'> +3.9959859e+02 </wgt>
<wgt id='14'> +5.3889813e+02 </wgt>
<wgt id='15'> +3.9958690e+02 </wgt>
<wgt id='16'> +5.6815794e+02 </wgt>
<wgt id='17'> +4.6671857e+02 </wgt>
<wgt id='18'> +4.2830968e+02 </wgt>
<wgt id='19'> +5.6815794e+02 </wgt>
<wgt id='20'> +4.2829732e+02 </wgt>
<wgt id='21'> +4.1364200e+02 </wgt>
<wgt id='22'> +3.8014241e+02 </wgt>
<wgt id='23'> +5.0481800e+02 </wgt>
<wgt id='24'> +3.8013163e+02 </wgt>
<wgt id='25'> +4.4804669e+02 </wgt>
<wgt id='26'> +3.6835830e+02 </wgt>
<wgt id='27'> +3.3903693e+02 </wgt>
<wgt id='28'> +4.4804669e+02 </wgt>
<wgt id='29'> +3.3902748e+02 </wgt>
<wgt id='30'> +4.8205005e+02 </wgt>
<wgt id='31'> +3.9951867e+02 </wgt>
<wgt id='32'> +3.6796091e+02 </wgt>
<wgt id='33'> +4.8205005e+02 </wgt>
<wgt id='34'> +3.6795073e+02 </wgt>
<wgt id='35'> +4.2830968e+02 </wgt>
<wgt id='36'> +3.5408427e+02 </wgt>
<wgt id='37'> +3.2658041e+02 </wgt>
<wgt id='38'> +4.2830968e+02 </wgt>
<wgt id='39'> +3.2657153e+02 </wgt>
<wgt id='40'> +3.8014241e+02 </wgt>
<wgt id='41'> +3.1532069e+02 </wgt>
<wgt id='42'> +2.9126668e+02 </wgt>
<wgt id='43'> +3.8014241e+02 </wgt>
<wgt id='44'> +2.9125891e+02 </wgt>
<wgt id='45'> +5.0481800e+02 </wgt>
<wgt id='46'> +5.1622033e+02 </wgt>
<wgt id='47'> +5.3909633e+02 </wgt>
<wgt id='48'> +5.0387844e+02 </wgt>
<wgt id='49'> +4.5705004e+02 </wgt>
<wgt id='50'> +5.9440881e+02 </wgt>
<wgt id='51'> +4.7279899e+02 </wgt>
<wgt id='52'> +4.5361404e+02 </wgt>
<wgt id='53'> +5.2027453e+02 </wgt>
<wgt id='54'> +5.3858056e+02 </wgt>
<wgt id='55'> +5.8478161e+02 </wgt>
<wgt id='56'> +4.8799398e+02 </wgt>
<wgt id='57'> +5.3929021e+02 </wgt>
<wgt id='58'> +4.4651371e+02 </wgt>
<wgt id='59'> +5.4634975e+02 </wgt>
<wgt id='60'> +4.9492563e+02 </wgt>
<wgt id='61'> +4.2332948e+02 </wgt>
<wgt id='62'> +4.5423510e+02 </wgt>
<wgt id='63'> +5.3662700e+02 </wgt>
<wgt id='64'> +5.0596702e+02 </wgt>
<wgt id='65'> +4.4188634e+02 </wgt>
<wgt id='66'> +5.1695576e+02 </wgt>
<wgt id='67'> +5.0844412e+02 </wgt>
<wgt id='68'> +6.4406139e+02 </wgt>
<wgt id='69'> +5.6617163e+02 </wgt>
<wgt id='70'> +5.7268662e+02 </wgt>
<wgt id='71'> +4.5742520e+02 </wgt>
<wgt id='72'> +4.4677726e+02 </wgt>
<wgt id='73'> +4.5001021e+02 </wgt>
<wgt id='74'> +6.0178527e+02 </wgt>
<wgt id='75'> +5.7287658e+02 </wgt>
<wgt id='76'> +5.1971406e+02 </wgt>
<wgt id='77'> +4.6396734e+02 </wgt>
<wgt id='78'> +4.2559927e+02 </wgt>
<wgt id='79'> +5.5296041e+02 </wgt>
<wgt id='80'> +4.3206169e+02 </wgt>
<wgt id='81'> +5.3532639e+02 </wgt>
<wgt id='82'> +5.0220574e+02 </wgt>
<wgt id='83'> +5.0075801e+02 </wgt>
<wgt id='84'> +4.8225690e+02 </wgt>
<wgt id='85'> +4.4328492e+02 </wgt>
<wgt id='86'> +5.4135785e+02 </wgt>
<wgt id='87'> +4.9071610e+02 </wgt>
<wgt id='88'> +5.0117243e+02 </wgt>
<wgt id='89'> +3.9719857e+02 </wgt>
<wgt id='90'> +4.5063785e+02 </wgt>
<wgt id='91'> +4.2091222e+02 </wgt>
<wgt id='92'> +4.7452790e+02 </wgt>
<wgt id='93'> +5.1423459e+02 </wgt>
<wgt id='94'> +4.5725724e+02 </wgt>
<wgt id='95'> +5.2889815e+02 </wgt>
<wgt id='96'> +5.2934025e+02 </wgt>
<wgt id='97'> +4.4679411e+02 </wgt>
<wgt id='98'> +5.6440849e+02 </wgt>
<wgt id='99'> +4.0816582e+02 </wgt>
<wgt id='100'> +3.6541594e+02 </wgt>
<wgt id='101'> +5.9387953e+02 </wgt>
<wgt id='102'> +5.7607707e+02 </wgt>
<wgt id='103'> +4.6366730e+02 </wgt>
<wgt id='104'> +5.5267724e+02 </wgt>
<wgt id='105'> +5.1536819e+02 </wgt>
<wgt id='106'> +4.9903690e+02 </wgt>
<wgt id='107'> +4.9901097e+02 </wgt>
<wgt id='108'> +4.7532107e+02 </wgt>
<wgt id='109'> +5.0107764e+02 </wgt>
<wgt id='110'> +4.4720132e+02 </wgt>
<wgt id='111'> +4.8578210e+02 </wgt>
<wgt id='112'> +5.3081428e+02 </wgt>
<wgt id='113'> +5.5538219e+02 </wgt>
<wgt id='114'> +5.2273260e+02 </wgt>
<wgt id='115'> +4.6897069e+02 </wgt>
<wgt id='116'> +5.6287647e+02 </wgt>
<wgt id='117'> +5.0030133e+02 </wgt>
<wgt id='118'> +5.1282510e+02 </wgt>
<wgt id='119'> +5.6284935e+02 </wgt>
<wgt id='120'> +5.0432976e+02 </wgt>
<wgt id='121'> +4.8509153e+02 </wgt>
<wgt id='122'> +4.8835036e+02 </wgt>
<wgt id='123'> +4.7145026e+02 </wgt>
<wgt id='124'> +5.6786278e+02 </wgt>
<wgt id='125'> +6.6060018e+02 </wgt>
<wgt id='126'> +4.8844368e+02 </wgt>
<wgt id='127'> +4.7196140e+02 </wgt>
<wgt id='128'> +4.9742763e+02 </wgt>
<wgt id='129'> +5.0158402e+02 </wgt>
<wgt id='130'> +5.1500453e+02 </wgt>
<wgt id='131'> +4.5043304e+02 </wgt>
<wgt id='132'> +5.4600976e+02 </wgt>
<wgt id='133'> +5.5572041e+02 </wgt>
<wgt id='134'> +5.4040974e+02 </wgt>
<wgt id='135'> +4.7662695e+02 </wgt>
<wgt id='136'> +6.0344009e+02 </wgt>
<wgt id='137'> +5.5250552e+02 </wgt>
<wgt id='138'> +5.3044157e+02 </wgt>
<wgt id='139'> +5.2061443e+02 </wgt>
<wgt id='140'> +4.8997119e+02 </wgt>
<wgt id='141'> +6.0083948e+02 </wgt>
<wgt id='142'> +3.1815297e+02 </wgt>
<wgt id='143'> +5.1316358e+02 </wgt>
<wgt id='144'> +4.4859096e+02 </wgt>
<wgt id='145'> +4.5896728e+02 </wgt>
</rwgt>
</event>
<event>
 4      1 +5.0481800e+02 1.99964900e+02 7.54677100e-03 1.14976900e-01
       21 -1    0    0  503  502 +0.0000000000e+00 +0.0000000000e+00 +3.5940889151e+02 3.5940889151e+02 0.0000000000e+00 0.0000e+00 -1.0000e+00
       21 -1    0    0  501  503 -0.0000000000e+00 -0.0000000000e+00 -1.1634239031e+02 1.1634239031e+02 0.0000000000e+00 0.0000e+00 -1.0000e+00
        6  1    1    2  501    0 +5.1456706337e+00 +1.0015238837e+02 +7.1789866581e+01 2.1246120532e+02 1.7300000000e+02 0.0000e+00 -1.0000e+00
       -6  1    1    2    0  502 -5.1456706337e+00 -1.0015238837e+02 +1.7127663461e+02 2.6329007651e+02 1.7300000000e+02 0.0000e+00 -1.0000e+00
<mgrwt>
<rscale>  2 0.19996494E+03</rscale>
<asrwt>0</asrwt>
<pdfrwt beam="1">  1       21 0.55293675E-01 0.19996494E+03</pdfrwt>
<pdfrwt beam="2">  1       21 0.17898829E-01 0.19996494E+03</pdfrwt>
<totfact> 0.87228297E+04</totfact>
</mgrwt>
<rwgt>
<wgt id='1'> +6.4529485e+02 </wgt>
<wgt id='2'> +5.5415913e+02 </wgt>
<wgt id='3'> +5.0481800e+02 </wgt>
<wgt id='4'> +6.4529484e+02 </wgt>
<wgt id='5'> +5.0095971e+02 </wgt>
<wgt id='6'> +6.1829542e+02 </wgt>
<wgt id='7'> +5.2390615e+02 </wgt>
<wgt id='8'> +4.7532283e+02 </wgt>
<wgt id='9'> +6.1829542e+02 </wgt>
<wgt id='10'> +4.7165572e+02 </wgt>
<wgt id='11'> +5.8217007e+02 </wgt>
<wgt id='12'> +4.9305197e+02 </wgt>
<wgt id='13'> +4.4724575e+02 </wgt>
<wgt id='14'> +5.8217007e+02 </wgt>
<wgt id='15'> +4.4379097e+02 </wgt>
<wgt id='16'> +5.2686215e+02 </wgt>
<wgt id='17'> +4.6266575e+02 </wgt>
<wgt id='18'> +4.2541286e+02 </wgt>
<wgt id='19'> +5.2686214e+02 </wgt>
<wgt id='20'> +4.2237204e+02 </wgt>
<wgt id='21'> +4.3740763e+02 </wgt>
<wgt id='22'> +4.0055712e+02 </wgt>
<wgt id='23'> +5.0481800e+02 </wgt>
<wgt id='24'> +3.9766509e+02 </wgt>
<wgt id='25'> +4.7532283e+02 </wgt>
<wgt id='26'> +4.1164757e+02 </wgt>
<wgt id='27'> +3.7689642e+02 </wgt>
<wgt id='28'> +4.7532283e+02 </wgt>
<wgt id='29'> +3.7417161e+02 </wgt>
<wgt id='30'> +4.4398958e+02 </wgt>
<wgt id='31'> +3.9317811e+02 </wgt>
<wgt id='32'> +3.6332231e+02 </wgt>
<wgt id='33'> +4.4398958e+02 </wgt>
<wgt id='34'> +3.6087075e+02 </wgt>
<wgt id='35'> +4.2541286e+02 </wgt>
<wgt id='36'> +3.7171350e+02 </wgt>
<wgt id='37'> +3.4209435e+02 </wgt>
<wgt id='38'> +4.2541286e+02 </wgt>
<wgt id='39'> +3.3976136e+02 </wgt>
<wgt id='40'> +4.0055712e+02 </wgt>
<wgt id='41'> +3.4982234e+02 </wgt>
<wgt id='42'> +3.2188702e+02 </wgt>
<wgt id='43'> +4.0055712e+02 </wgt>
<wgt id='44'> +3.1968875e+02 </wgt>
<wgt id='45'> +5.0481800e+02 </wgt>
<wgt id='46'> +5.0522576e+02 </wgt>
<wgt id='47'> +5.2119787e+02 </wgt>
<wgt id='48'> +5.0585883e+02 </wgt>
<wgt id='49'> +5.0321149e+02 </wgt>
<wgt id='50'> +5.8518405e+02 </wgt>
<wgt id='51'> +4.9508795e+02 </wgt>
<wgt id='52'> +5.0246165e+02 </wgt>
<wgt id='53'> +5.0941026e+02 </wgt>
<wgt id='54'> +5.0791869e+02 </wgt>
<wgt id='55'> +4.5597042e+02 </wgt>
<wgt id='56'> +4.7030195e+02 </wgt>
<wgt id='57'> +4.9367957e+02 </wgt>
<wgt id='58'> +5.0792896e+02 </wgt>
<wgt id='59'> +5.0017528e+02 </wgt>
<wgt id='60'> +4.8693510e+02 </wgt>
<wgt id='61'> +4.8808677e+02 </wgt>
<wgt id='62'> +4.9791513e+02 </wgt>
<wgt id='63'> +5.0529354e+02 </wgt>
<wgt id='64'> +5.0007551e+02 </wgt>
<wgt id='65'> +5.8845106e+02 </wgt>
<wgt id='66'> +4.9320164e+02 </wgt>
<wgt id='67'> +5.0915868e+02 </wgt>
<wgt id='68'> +5.4072061e+02 </wgt>
<wgt id='69'> +4.9215034e+02 </wgt>
<wgt id='70'> +4.9702722e+02 </wgt>
<wgt id='71'> +5.1406801e+02 </wgt>
<wgt id='72'> +4.9297092e+02 </wgt>
<wgt id='73'> +4.9809551e+02 </wgt>
<wgt id='74'> +5.1992839e+02 </wgt>
<wgt id='75'> +5.1518641e+02 </wgt>
<wgt id='76'> +4.9186257e+02 </wgt>
<wgt id='77'> +4.8750717e+02 </wgt>
<wgt id='78'> +5.0346452e+02 </wgt>
<wgt id='79'> +4.8593399e+02 </wgt>
<wgt id='80'> +5.0009312e+02 </wgt>
<wgt id='81'> +4.9614837e+02 </wgt>
<wgt id='82'> +5.1617627e+02 </wgt>
<wgt id='83'> +5.1358105e+02 </wgt>
<wgt id='84'> +5.5094510e+02 </wgt>
<wgt id='85'> +5.2844508e+02 </wgt>
<wgt id='86'> +5.0139663e+02 </wgt>
<wgt id='87'> +5.0497663e+02 </wgt>
<wgt id='88'> +5.1189229e+02 </wgt>
<wgt id='89'> +5.1584479e+02 </wgt>
<wgt id='90'> +5.1109806e+02 </wgt>
<wgt id='91'> +5.3450571e+02 </wgt>
<wgt id='92'> +4.6754668e+02 </wgt>
<wgt id='93'> +4.9651364e+02 </wgt>
<wgt id='94'> +5.0195890e+02 </wgt>
<wgt id='95'> +4.8692162e+02 </wgt>
<wgt id='96'> +5.4223563e+02 </wgt>
<wgt id='97'> +5.1158911e+02 </wgt>
<wgt id='98'> +4.8324241e+02 </wgt>
<wgt id='99'> +4.8990654e+02 </wgt>
<wgt id='100'> +4.9974474e+02 </wgt>
<wgt id='101'> +5.3081271e+02 </wgt>
<wgt id='102'> +4.9209485e+02 </wgt>
<wgt id='103'> +5.4602737e+02 </wgt>
<wgt id='104'> +5.0356996e+02 </wgt>
<wgt id='105'> +5.2484508e+02 </wgt>
<wgt id='106'> +4.6666886e+02 </wgt>
<wgt id='107'> +4.9842552e+02 </wgt>
<wgt id='108'> +4.5421508e+02 </wgt>
<wgt id='109'> +4.7600554e+02 </wgt>
<wgt id='110'> +5.0583377e+02 </wgt>
<wgt id='111'> +4.9244051e+02 </wgt>
<wgt id='112'> +4.8218676e+02 </wgt>
<wgt id='113'> +4.6564147e+02 </wgt>
<wgt id='114'> +5.0356317e+02 </wgt>
<wgt id='115'> +5.0295909e+02 </wgt>
<wgt id='116'> +5.0459704e+02 </wgt>
<wgt id='117'> +5.1003489e+02 </wgt>
<wgt id='118'> +5.1719584e+02 </wgt>
<wgt id='119'> +4.8700874e+02 </wgt>
<wgt id='120'> +5.0095620e+02 </wgt>
<wgt id='121'> +4.9220304e+02 </wgt>
<wgt id='122'> +4.9883433e+02 </wgt>
<wgt id='123'> +5.1003663e+02 </wgt>
<wgt id='124'> +5.3865349e+02 </wgt>
<wgt id='125'> +5.4028762e+02 </wgt>
<wgt id='126'> +5.2245392e+02 </wgt>
<wgt id='127'> +5.1873502e+02 </wgt>
<wgt id='128'> +4.6856524e+02 </wgt>
<wgt id='129'> +5.6905833e+02 </wgt>
<wgt id='130'> +5.0668698e+02 </wgt>
<wgt id='131'> +5.3838361e+02 </wgt>
<wgt id='132'> +5.0287750e+02 </wgt>
<wgt id='133'> +5.0225019e+02 </wgt>
<wgt id='134'> +4.7749746e+02 </wgt>
<wgt id='135'> +5.1691758e+02 </wgt>
<wgt id='136'> +4.8826328e+02 </wgt>
<wgt id='137'> +4.7621655e+02 </wgt>
<wgt id='138'> +4.5974796e+02 </wgt>
<wgt id='139'> +5.1449137e+02 </wgt>
<wgt id='140'> +5.3441499e+02 </wgt>
<wgt id='141'> +5.0435047e+02 </wgt>
<wgt id='142'> +5.0586376e+02 </wgt>
<wgt id='143'> +5.0228209e+02 </wgt>
<wgt id='144'> +5.0462714e+02 </wgt>
<wgt id='145'> +5.0571998e+02 </wgt>
</rwgt>
</event>
<event>
 4      1 +5.0481800e+02 2.21215200e+02 7.54677100e-03 1.13298000e-01
       21 -1    0    0  503  502 +0.0000000000e+00 +0.0000000000e+00 +1.5799764843e+02 1.5799764843e+02 0.0000000000e+00 0.0000e+00 1.0000e+00
       21 -1    0    0  501  503 -0.0000000000e+00 -0.0000000000e+00 -3.7836050640e+02 3.7836050640e+02 0.0000000000e+00 0.0000e+00 1.0000e+00
        6  1    1    2  501    0 -1.3766920312e+02 +7.3737293760e+00 -2.2440065460e+02 3.1510606969e+02 1.7300000000e+02 0.0000e+00 1.0000e+00
       -6  1    1    2    0  502 +1.3766920312e+02 -7.3737293760e+00 +4.0377966333e+00 2.2125208513e+02 1.7300000000e+02 0.0000e+00 1.0000e+00
<mgrwt>
<rscale>  2 0.22121524E+03</rscale>
<asrwt>0</asrwt>
<pdfrwt beam="1">  1       21 0.24307331E-01 0.22121524E+03</pdfrwt>
<pdfrwt beam="2">  1       21 0.58209308E-01 0.22121524E+03</pdfrwt>
<totfact> 0.43568903E+04</totfact>
</mgrwt>
<rwgt>
<wgt id='1'> +6.5170141e+02 </wgt>
<wgt id='2'> +5.3011950e+02 </wgt>
<wgt id='3'> +5.0481800e+02 </wgt>
<wgt id='4'> +6.5170141e+02 </wgt>
<wgt id='5'> +4.8717461e+02 </wgt>
<wgt id='6'> +6.1481553e+02 </wgt>
<wgt id='7'> +4.9378899e+02 </wgt>
<wgt id='8'> +4.7018046e+02 </wgt>
<wgt id='9'> +6.1481553e+02 </wgt>
<wgt id='10'> +4.5378008e+02 </wgt>
<wgt id='11'> +5.7263063e+02 </wgt>
<wgt id='12'> +4.6007119e+02 </wgt>
<wgt id='13'> +4.3813967e+02 </wgt>
<wgt id='14'> +5.7263063e+02 </wgt>
<wgt id='15'> +4.2290980e+02 </wgt>
<wgt id='16'> +5.3510457e+02 </wgt>
<wgt id='17'> +4.4633445e+02 </wgt>
<wgt id='18'> +4.2627538e+02 </wgt>
<wgt id='19'> +5.3510457e+02 </wgt>
<wgt id='20'> +4.1219410e+02 </wgt>
<wgt id='21'> +4.1574596e+02 </wgt>
<wgt id='22'> +3.9702695e+02 </wgt>
<wgt id='23'> +5.0481800e+02 </wgt>
<wgt id='24'> +3.8393928e+02 </wgt>
<wgt id='25'> +4.7018046e+02 </wgt>
<wgt id='26'> +3.8735723e+02 </wgt>
<wgt id='27'> +3.6997126e+02 </wgt>
<wgt id='28'> +4.7018046e+02 </wgt>
<wgt id='29'> +3.5782021e+02 </wgt>
<wgt id='30'> +4.5184978e+02 </wgt>
<wgt id='31'> +3.8094801e+02 </wgt>
<wgt id='32'> +3.6471301e+02 </wgt>
<wgt id='33'> +4.5184978e+02 </wgt>
<wgt id='34'> +3.5327858e+02 </wgt>
<wgt id='35'> +4.2627538e+02 </wgt>
<wgt id='36'> +3.5484062e+02 </wgt>
<wgt id='37'> +3.3968862e+02 </wgt>
<wgt id='38'> +4.2627538e+02 </wgt>
<wgt id='39'> +3.2906227e+02 </wgt>
<wgt id='40'> +3.9702695e+02 </wgt>
<wgt id='41'> +3.3061075e+02 </wgt>
<wgt id='42'> +3.1654029e+02 </wgt>
<wgt id='43'> +3.9702695e+02 </wgt>
<wgt id='44'> +3.0667644e+02 </wgt>
<wgt id='45'> +5.0481800e+02 </wgt>
<wgt id='46'> +5.0847832e+02 </wgt>
<wgt id='47'> +5.2394226e+02 </wgt>
<wgt id='48'> +5.0816776e+02 </wgt>
<wgt id='49'> +5.0281428e+02 </wgt>
<wgt id='50'> +5.9688582e+02 </wgt>
<wgt id='51'> +4.9489225e+02 </wgt>
<wgt id='52'> +5.0278799e+02 </wgt>
<wgt id='53'> +5.0747866e+02 </wgt>
<wgt id='54'> +5.0818686e+02 </wgt>
<wgt id='55'> +4.5383099e+02 </wgt>
<wgt id='56'> +4.6612707e+02 </wgt>
<wgt id='57'> +4.9300029e+02 </wgt>
<wgt id='58'> +5.0436010e+02 </wgt>
<wgt id='59'> +5.0285451e+02 </wgt>
<wgt id='60'> +4.8876388e+02 </wgt>
<wgt id='61'> +4.8154319e+02 </wgt>
<wgt id='62'> +4.9842704e+02 </wgt>
<wgt id='63'> +5.0536383e+02 </wgt>
<wgt id='64'> +4.9713352e+02 </wgt>
<wgt id='65'> +5.9110774e+02 </wgt>
<wgt id='66'> +4.9380462e+02 </wgt>
<wgt id='67'> +5.0918009e+02 </wgt>
<wgt id='68'> +5.4528836e+02 </wgt>
<wgt id='69'> +4.9684107e+02 </wgt>
<wgt id='70'> +4.9617590e+02 </wgt>
<wgt id='71'> +5.1381336e+02 </wgt>
<wgt id='72'> +4.8577538e+02 </wgt>
<wgt id='73'> +4.9598814e+02 </wgt>
<wgt id='74'> +5.2393091e+02 </wgt>
<wgt id='75'> +5.1670673e+02 </wgt>
<wgt id='76'> +4.9044916e+02 </wgt>
<wgt id='77'> +4.8886868e+02 </wgt>
<wgt id='78'> +4.9990761e+02 </wgt>
<wgt id='79'> +4.8741897e+02 </wgt>
<wgt id='80'> +4.9851689e+02 </wgt>
<wgt id='81'> +4.9455682e+02 </wgt>
<wgt id='82'> +5.1463983e+02 </wgt>
<wgt id='83'> +5.1609079e+02 </wgt>
<wgt id='84'> +5.5435564e+02 </wgt>
<wgt id='85'> +5.2920126e+02 </wgt>
<wgt id='86'> +5.0372804e+02 </wgt>
<wgt id='87'> +5.0608054e+02 </wgt>
<wgt id='88'> +5.1361019e+02 </wgt>
<wgt id='89'> +5.1723555e+02 </wgt>
<wgt id='90'> +5.1187420e+02 </wgt>
<wgt id='91'> +5.3413089e+02 </wgt>
<wgt id='92'> +4.5991801e+02 </wgt>
<wgt id='93'> +4.9823190e+02 </wgt>
<wgt id='94'> +4.9918957e+02 </wgt>
<wgt id='95'> +4.8473301e+02 </wgt>
<wgt id='96'> +5.4804123e+02 </wgt>
<wgt id='97'> +5.0969517e+02 </wgt>
<wgt id='98'> +4.8362626e+02 </wgt>
<wgt id='99'> +4.8788872e+02 </wgt>
<wgt id='100'> +4.9344692e+02 </wgt>
<wgt id='101'> +5.3795420e+02 </wgt>
<wgt id='102'> +4.9762843e+02 </wgt>
<wgt id='103'> +5.4950314e+02 </wgt>
<wgt id='104'> +5.0591671e+02 </wgt>
<wgt id='105'> +5.2251213e+02 </wgt>
<wgt id='106'> +4.6018112e+02 </wgt>
<wgt id='107'> +4.9257830e+02 </wgt>
<wgt id='108'> +4.4799057e+02 </wgt>
<wgt id='109'> +4.7199090e+02 </wgt>
<wgt id='110'> +5.0424758e+02 </wgt>
<wgt id='111'> +4.9019768e+02 </wgt>
<wgt id='112'> +4.7898732e+02 </wgt>
<wgt id='113'> +4.6223704e+02 </wgt>
<wgt id='114'> +4.9834639e+02 </wgt>
<wgt id='115'> +4.9841030e+02 </wgt>
<wgt id='116'> +5.0991355e+02 </wgt>
<wgt id='117'> +5.0861556e+02 </wgt>
<wgt id='118'> +5.2196353e+02 </wgt>
<wgt id='119'> +4.8487174e+02 </wgt>
<wgt id='120'> +4.9865813e+02 </wgt>
<wgt id='121'> +4.8980025e+02 </wgt>
<wgt id='122'> +4.9796802e+02 </wgt>
<wgt id='123'> +5.1184794e+02 </wgt>
<wgt id='124'> +5.4504417e+02 </wgt>
<wgt id='125'> +5.4625999e+02 </wgt>
<wgt id='126'> +5.2520444e+02 </wgt>
<wgt id='127'> +5.2070878e+02 </wgt>
<wgt id='128'> +4.6560016e+02 </wgt>
<wgt id='129'> +5.7184530e+02 </wgt>
<wgt id='130'> +5.0847875e+02 </wgt>
<wgt id='131'> +5.3865604e+02 </wgt>
<wgt id='132'> +5.0535415e+02 </wgt>
<wgt id='133'> +5.0585912e+02 </wgt>
<wgt id='134'> +4.7734297e+02 </wgt>
<wgt id='135'> +5.1698625e+02 </wgt>
<wgt id='136'> +4.9004737e+02 </wgt>
<wgt id='137'> +4.7759261e+02 </wgt>
<wgt id='138'> +4.6404129e+02 </wgt>
<wgt id='139'> +5.1636903e+02 </wgt>
<wgt id='140'> +5.3300614e+02 </wgt>
<wgt id='141'> +5.0590009e+02 </wgt>
<wgt id='142'> +5.0110562e+02 </wgt>
<wgt id='143'> +5.0345024e+02 </wgt>
<wgt id='144'> +5.0146905e+02 </wgt>
<wgt id='145'> +5.0572088e+02 </wgt>
</rwgt>
</event>
<event>
 4      1 +5.0481800e+02 1.80628400e+02 7.54677100e-03 1.16719600e-01
       21 -1    0    0  501  502 +0.0000000000e+00 +0.0000000000e+00 +1.7091194204e+02 1.7091194204e+02 0.0000000000e+00 0.0000e+00 1.0000e+00
       21 -1    0    0  502  503 -0.0000000000e+00 -0.0000000000e+00 -2.0918158031e+02 2.0918158031e+02 0.0000000000e+00 0.0000e+00 1.0000e+00
        6  1    1    2  501    0 +4.8055739801e+01 -1.9704301441e+01 +3.7052551124e+01 1.8438954734e+02 1.7300000000e+02 0.0000e+00 -1.0000e+00
       -6  1    1    2    0  503 -4.8055739801e+01 +1.9704301441e+01 -7.5322189391e+01 1.9570397502e+02 1.7300000000e+02 0.0000e+00 -1.0000e+00
<mgrwt>
<rscale>  2 0.18062839E+03</rscale>
<asrwt>0</asrwt>
<pdfrwt beam="1">  1       21 0.26294145E-01 0.18062839E+03</pdfrwt>
<pdfrwt beam="2">  1       21 0.32181781E-01 0.18062839E+03</pdfrwt>
<totfact> 0.12825802E+05</totfact>
</mgrwt>
<rwgt>
<wgt id='1'> +6.4182770e+02 </wgt>
<wgt id='2'> +5.6382954e+02 </wgt>
<wgt id='3'> +5.0481800e+02 </wgt>
<wgt id='4'> +6.4182771e+02 </wgt>
<wgt id='5'> +4.9713034e+02 </wgt>
<wgt id='6'> +6.2132246e+02 </wgt>
<wgt id='7'> +5.3940384e+02 </wgt>
<wgt id='8'> +4.7894942e+02 </wgt>
<wgt id='9'> +6.2132246e+02 </wgt>
<wgt id='10'> +4.7140042e+02 </wgt>
<wgt id='11'> +5.8948379e+02 </wgt>
<wgt id='12'> +5.1096621e+02 </wgt>
<wgt id='13'> +4.5342721e+02 </wgt>
<wgt id='14'> +5.8948380e+02 </wgt>
<wgt id='15'> +4.4625189e+02 </wgt>
<wgt id='16'> +5.2147830e+02 </wgt>
<wgt id='17'> +4.6699408e+02 </wgt>
<wgt id='18'> +4.2419684e+02 </wgt>
<wgt id='19'> +5.2147830e+02 </wgt>
<wgt id='20'> +4.1831324e+02 </wgt>
<wgt id='21'> +4.4676340e+02 </wgt>
<wgt id='22'> +4.0245956e+02 </wgt>
<wgt id='23'> +5.0481800e+02 </wgt>
<wgt id='24'> +3.9666265e+02 </wgt>
<wgt id='25'> +4.7894942e+02 </wgt>
<wgt id='26'> +4.2320981e+02 </wgt>
<wgt id='27'> +3.8101334e+02 </wgt>
<wgt id='28'> +4.7894942e+02 </wgt>
<wgt id='29'> +3.7550127e+02 </wgt>
<wgt id='30'> +4.3819643e+02 </wgt>
<wgt id='31'> +3.9563957e+02 </wgt>
<wgt id='32'> +3.6161576e+02 </wgt>
<wgt id='33'> +4.3819643e+02 </wgt>
<wgt id='34'> +3.5689723e+02 </wgt>
<wgt id='35'> +4.2419684e+02 </wgt>
<wgt id='36'> +3.7850005e+02 </wgt>
<wgt id='37'> +3.4308534e+02 </wgt>
<wgt id='38'> +4.2419684e+02 </wgt>
<wgt id='39'> +3.3842534e+02 </wgt>
<wgt id='40'> +4.0245956e+02 </wgt>
<wgt id='41'> +3.5854534e+02 </wgt>
<wgt id='42'> +3.2480304e+02 </wgt>
<wgt id='43'> +4.0245956e+02 </wgt>
<wgt id='44'> +3.2037084e+02 </wgt>
<wgt id='45'> +5.0481800e+02 </wgt>
<wgt id='46'> +4.9999392e+02 </wgt>
<wgt id='47'> +5.2023410e+02 </wgt>
<wgt id='48'> +5.0334616e+02 </wgt>
<wgt id='49'> +5.0432304e+02 </wgt>
<wgt id='50'> +5.7603486e+02 </wgt>
<wgt id='51'> +4.9512328e+02 </wgt>
<wgt id='52'> +5.0056849e+02 </wgt>
<wgt id='53'> +5.1507678e+02 </wgt>
<wgt id='54'> +5.0764791e+02 </wgt>
<wgt id='55'> +4.5136217e+02 </wgt>
<wgt id='56'> +4.7528546e+02 </wgt>
<wgt id='57'> +4.9089525e+02 </wgt>
<wgt id='58'> +5.1278675e+02 </wgt>
<wgt id='59'> +4.9144255e+02 </wgt>
<wgt id='60'> +4.7879910e+02 </wgt>
<wgt id='61'> +5.0284634e+02 </wgt>
<wgt id='62'> +4.9740260e+02 </wgt>
<wgt id='63'> +5.0525757e+02 </wgt>
<wgt id='64'> +5.0483332e+02 </wgt>
<wgt id='65'> +5.9722802e+02 </wgt>
<wgt id='66'> +4.9185450e+02 </wgt>
<wgt id='67'> +5.0943314e+02 </wgt>
<wgt id='68'> +5.3449922e+02 </wgt>
<wgt id='69'> +4.8667422e+02 </wgt>
<wgt id='70'> +4.9736444e+02 </wgt>
<wgt id='71'> +5.1464599e+02 </wgt>
<wgt id='72'> +4.9914108e+02 </wgt>
<wgt id='73'> +5.0063815e+02 </wgt>
<wgt id='74'> +5.1428809e+02 </wgt>
<wgt id='75'> +5.1475179e+02 </wgt>
<wgt id='76'> +4.9100349e+02 </wgt>
<wgt id='77'> +4.8306849e+02 </wgt>
<wgt id='78'> +5.1128366e+02 </wgt>
<wgt id='79'> +4.8082832e+02 </wgt>
<wgt id='80'> +5.0263541e+02 </wgt>
<wgt id='81'> +4.9743907e+02 </wgt>
<wgt id='82'> +5.2198615e+02 </wgt>
<wgt id='83'> +5.1309680e+02 </wgt>
<wgt id='84'> +5.5227681e+02 </wgt>
<wgt id='85'> +5.3179773e+02 </wgt>
<wgt id='86'> +4.9852840e+02 </wgt>
<wgt id='87'> +5.0294474e+02 </wgt>
<wgt id='88'> +5.1246345e+02 </wgt>
<wgt id='89'> +5.1447195e+02 </wgt>
<wgt id='90'> +5.0834224e+02 </wgt>
<wgt id='91'> +5.3911850e+02 </wgt>
<wgt id='92'> +4.7302977e+02 </wgt>
<wgt id='93'> +4.9332136e+02 </wgt>
<wgt id='94'> +5.0584359e+02 </wgt>
<wgt id='95'> +4.8584565e+02 </wgt>
<wgt id='96'> +5.3944269e+02 </wgt>
<wgt id='97'> +5.1590187e+02 </wgt>
<wgt id='98'> +4.8018737e+02 </wgt>
<wgt id='99'> +4.9244596e+02 </wgt>
<wgt id='100'> +5.0988626e+02 </wgt>
<wgt id='101'> +5.1961728e+02 </wgt>
<wgt id='102'> +4.8129448e+02 </wgt>
<wgt id='103'> +5.4412030e+02 </wgt>
<wgt id='104'> +5.0149274e+02 </wgt>
<wgt id='105'> +5.2806868e+02 </wgt>
<wgt id='106'> +4.7241394e+02 </wgt>
<wgt id='107'> +5.0726218e+02 </wgt>
<wgt id='108'> +4.6054389e+02 </wgt>
<wgt id='109'> +4.7913226e+02 </wgt>
<wgt id='110'> +5.0739795e+02 </wgt>
<wgt id='111'> +4.9455067e+02 </wgt>
<wgt id='112'> +4.8663691e+02 </wgt>
<wgt id='113'> +4.6727709e+02 </wgt>
<wgt id='114'> +5.1221016e+02 </wgt>
<wgt id='115'> +5.1579661e+02 </wgt>
<wgt id='116'> +4.9686575e+02 </wgt>
<wgt id='117'> +5.1515319e+02 </wgt>
<wgt id='118'> +5.1072767e+02 </wgt>
<wgt id='119'> +4.8744723e+02 </wgt>
<wgt id='120'> +5.0921843e+02 </wgt>
<wgt id='121'> +4.9289473e+02 </wgt>
<wgt id='122'> +4.9920295e+02 </wgt>
<wgt id='123'> +5.0979572e+02 </wgt>
<wgt id='124'> +5.2999449e+02 </wgt>
<wgt id='125'> +5.3196115e+02 </wgt>
<wgt id='126'> +5.2148238e+02 </wgt>
<wgt id='127'> +5.1725478e+02 </wgt>
<wgt id='128'> +4.7393253e+02 </wgt>
<wgt id='129'> +5.6890462e+02 </wgt>
<wgt id='130'> +5.0788287e+02 </wgt>
<wgt id='131'> +5.4144322e+02 </wgt>
<wgt id='132'> +4.9287827e+02 </wgt>
<wgt id='133'> +4.9561394e+02 </wgt>
<wgt id='134'> +4.7315480e+02 </wgt>
<wgt id='135'> +5.1796451e+02 </wgt>
<wgt id='136'> +4.7864106e+02 </wgt>
<wgt id='137'> +4.7334088e+02 </wgt>
<wgt id='138'> +4.5316091e+02 </wgt>
<wgt id='139'> +5.1149911e+02 </wgt>
<wgt id='140'> +5.4025650e+02 </wgt>
<wgt id='141'> +5.0223512e+02 </wgt>
<wgt id='142'> +5.1585331e+02 </wgt>
<wgt id='143'> +4.9686076e+02 </wgt>
<wgt id='144'> +5.0822268e+02 </wgt>
<wgt id='145'> +5.0585255e+02 </wgt>
</rwgt>
</event>
<event>
 4      1 +5.0481800e+02 1.79487000e+02 7.54677100e-03 1.16830000e-01
       21 -1    0    0  501  502 +0.0000000000e+00 +0.0000000000e+00 +6.0024632832e+02 6.0024632832e+02 0.0000000000e+00 0.0000e+00 1.0000e+00
       21 -1    0    0  502  503 -0.0000000000e+00 -0.0000000000e+00 -9.1538566374e+01 9.1538566374e+01 0.0000000000e+00 0.0000e+00 1.0000e+00
        6  1    1    2  501    0 -3.3390394241e+01 +3.4229662081e+01 +4.7682566869e+02 5.0948827908e+02 1.7300000000e+02 0.0000e+00 1.0000e+00
       -6  1    1    2    0  503 +3.3390394241e+01 -3.4229662081e+01 +3.1882093250e+01 1.8229661561e+02 1.7300000000e+02 0.0000e+00 1.0000e+00
<mgrwt>
<rscale>  2 0.17948701E+03</rscale>
<asrwt>0</asrwt>
<pdfrwt beam="1">  1       21 0.92345586E-01 0.17948701E+03</pdfrwt>
<pdfrwt beam="2">  1       21 0.14082857E-01 0.17948701E+03</pdfrwt>
<totfact> 0.43831558E+04</totfact>
</mgrwt>
<rwgt>
<wgt id='1'> +6.5676034e+02 </wgt>
<wgt id='2'> +6.2661467e+02 </wgt>
<wgt id='3'> +5.0481800e+02 </wgt>
<wgt id='4'> +6.5676033e+02 </wgt>
<wgt id='5'> +4.5815351e+02 </wgt>
<wgt id='6'> +6.2151927e+02 </wgt>
<wgt id='7'> +5.9119068e+02 </wgt>
<wgt id='8'> +4.6922557e+02 </wgt>
<wgt id='9'> +6.2151926e+02 </wgt>
<wgt id='10'> +4.2557394e+02 </wgt>
<wgt id='11'> +5.7769877e+02 </wgt>
<wgt id='12'> +5.4906727e+02 </wgt>
<wgt id='13'> +4.3595864e+02 </wgt>
<wgt id='14'> +5.7769876e+02 </wgt>
<wgt id='15'> +3.9552157e+02 </wgt>
<wgt id='16'> +5.3344194e+02 </wgt>
<wgt id='17'> +5.1196131e+02 </wgt>
<wgt id='18'> +4.2411138e+02 </wgt>
<wgt id='19'> +5.3344193e+02 </wgt>
<wgt id='20'> +3.8730808e+02 </wgt>
<wgt id='21'> +4.8301894e+02 </wgt>
<wgt id='22'> +3.9420921e+02 </wgt>
<wgt id='23'> +5.0481800e+02 </wgt>
<wgt id='24'> +3.5976637e+02 </wgt>
<wgt id='25'> +4.6922558e+02 </wgt>
<wgt id='26'> +4.4860297e+02 </wgt>
<wgt id='27'> +3.6626076e+02 </wgt>
<wgt id='28'> +4.6922557e+02 </wgt>
<wgt id='29'> +3.3436107e+02 </wgt>
<wgt id='30'> +4.4815913e+02 </wgt>
<wgt id='31'> +4.3155697e+02 </wgt>
<wgt id='32'> +3.6150101e+02 </wgt>
<wgt id='33'> +4.4815913e+02 </wgt>
<wgt id='34'> +3.3170741e+02 </wgt>
<wgt id='35'> +4.2411138e+02 </wgt>
<wgt id='36'> +4.0716004e+02 </wgt>
<wgt id='37'> +3.3601322e+02 </wgt>
<wgt id='38'> +4.2411138e+02 </wgt>
<wgt id='39'> +3.0811950e+02 </wgt>
<wgt id='40'> +3.9420922e+02 </wgt>
<wgt id='41'> +3.7814916e+02 </wgt>
<wgt id='42'> +3.1219071e+02 </wgt>
<wgt id='43'> +3.9420921e+02 </wgt>
<wgt id='44'> +2.8636130e+02 </wgt>
<wgt id='45'> +5.0481800e+02 </wgt>
<wgt id='46'> +5.1321207e+02 </wgt>
<wgt id='47'> +5.2063576e+02 </wgt>
<wgt id='48'> +5.0776839e+02 </wgt>
<wgt id='49'> +4.9793662e+02 </wgt>
<wgt id='50'> +5.9795794e+02 </wgt>
<wgt id='51'> +4.9265012e+02 </wgt>
<wgt id='52'> +5.0356396e+02 </wgt>
<wgt id='53'> +5.0099900e+02 </wgt>
<wgt id='54'> +5.1203168e+02 </wgt>
<wgt id='55'> +4.7302193e+02 </wgt>
<wgt id='56'> +4.6297559e+02 </wgt>
<wgt id='57'> +5.0392599e+02 </wgt>
<wgt id='58'> +4.9724188e+02 </wgt>
<wgt id='59'> +5.1828539e+02 </wgt>
<wgt id='60'> +4.9970211e+02 </wgt>
<wgt id='61'> +4.5275788e+02 </wgt>
<wgt id='62'> +4.9543073e+02 </wgt>
<wgt id='63'> +5.0684743e+02 </wgt>
<wgt id='64'> +4.9634020e+02 </wgt>
<wgt id='65'> +5.6707611e+02 </wgt>
<wgt id='66'> +4.9532514e+02 </wgt>
<wgt id='67'> +5.0807409e+02 </wgt>
<wgt id='68'> +5.5348254e+02 </wgt>
<wgt id='69'> +5.0139412e+02 </wgt>
<wgt id='70'> +4.9836271e+02 </wgt>
<wgt id='71'> +5.1037012e+02 </wgt>
<wgt id='72'> +4.8704687e+02 </wgt>
<wgt id='73'> +4.9063287e+02 </wgt>
<wgt id='74'> +5.3111193e+02 </wgt>
<wgt id='75'> +5.1643478e+02 </wgt>
<wgt id='76'> +4.9704635e+02 </wgt>
<wgt id='77'> +4.9293432e+02 </wgt>
<wgt id='78'> +4.8699114e+02 </wgt>
<wgt id='79'> +4.9611501e+02 </wgt>
<wgt id='80'> +4.9246757e+02 </wgt>
<wgt id='81'> +4.9574285e+02 </wgt>
<wgt id='82'> +5.0172320e+02 </wgt>
<wgt id='83'> +5.1131734e+02 </wgt>
<wgt id='84'> +5.4374228e+02 </wgt>
<wgt id='85'> +5.1694485e+02 </wgt>
<wgt id='86'> +5.0616160e+02 </wgt>
<wgt id='87'> +5.0742510e+02 </wgt>
<wgt id='88'> +5.0793875e+02 </wgt>
<wgt id='89'> +5.1149813e+02 </wgt>
<wgt id='90'> +5.1333580e+02 </wgt>
<wgt id='91'> +5.2022161e+02 </wgt>
<wgt id='92'> +4.6268422e+02 </wgt>
<wgt id='93'> +5.0103980e+02 </wgt>
<wgt id='94'> +4.9314513e+02 </wgt>
<wgt id='95'> +4.9617428e+02 </wgt>
<wgt id='96'> +5.4097399e+02 </wgt>
<wgt id='97'> +5.0159800e+02 </wgt>
<wgt id='98'> +4.9179612e+02 </wgt>
<wgt id='99'> +4.8046778e+02 </wgt>
<wgt id='100'> +4.7631659e+02 </wgt>
<wgt id='101'> +5.5137210e+02 </wgt>
<wgt id='102'> +5.1305308e+02 </wgt>
<wgt id='103'> +5.4349859e+02 </wgt>
<wgt id='104'> +5.0832205e+02 </wgt>
<wgt id='105'> +5.2212839e+02 </wgt>
<wgt id='106'> +4.6233504e+02 </wgt>
<wgt id='107'> +4.8544457e+02 </wgt>
<wgt id='108'> +4.4779734e+02 </wgt>
<wgt id='109'> +4.7593491e+02 </wgt>
<wgt id='110'> +5.0119645e+02 </wgt>
<wgt id='111'> +4.9139534e+02 </wgt>
<wgt id='112'> +4.7974017e+02 </wgt>
<wgt id='113'> +4.6821465e+02 </wgt>
<wgt id='114'> +4.9721543e+02 </wgt>
<wgt id='115'> +4.8393135e+02 </wgt>
<wgt id='116'> +5.1825533e+02 </wgt>
<wgt id='117'> +5.0158131e+02 </wgt>
<wgt id='118'> +5.2630571e+02 </wgt>
<wgt id='119'> +4.9248963e+02 </wgt>
<wgt id='120'> +4.9458882e+02 </wgt>
<wgt id='121'> +4.9496302e+02 </wgt>
<wgt id='122'> +4.9914240e+02 </wgt>
<wgt id='123'> +5.0804286e+02 </wgt>
<wgt id='124'> +5.5391405e+02 </wgt>
<wgt id='125'> +5.5886346e+02 </wgt>
<wgt id='126'> +5.2031484e+02 </wgt>
<wgt id='127'> +5.1762031e+02 </wgt>
<wgt id='128'> +4.6111001e+02 </wgt>
<wgt id='129'> +5.6599500e+02 </wgt>
<wgt id='130'> +5.0136502e+02 </wgt>
<wgt id='131'> +5.2816801e+02 </wgt>
<wgt id='132'> +5.2378587e+02 </wgt>
<wgt id='133'> +5.1519449e+02 </wgt>
<wgt id='134'> +4.8810984e+02 </wgt>
<wgt id='135'> +5.1263665e+02 </wgt>
<wgt id='136'> +5.1419437e+02 </wgt>
<wgt id='137'> +4.8221212e+02 </wgt>
<wgt id='138'> +4.7075575e+02 </wgt>
<wgt id='139'> +5.1891297e+02 </wgt>
<wgt id='140'> +5.2286268e+02 </wgt>
<wgt id='141'> +5.1174978e+02 </wgt>
<wgt id='142'> +4.8130775e+02 </wgt>
<wgt id='143'> +5.1193930e+02 </wgt>
<wgt id='144'> +4.9642850e+02 </wgt>
<wgt id='145'> +5.0161045e+02 </wgt>
</rwgt>
</event>
<event>
 4      1 +5.0481800e+02 1.86777000e+02 7.54677100e-03 1.16140100e-01
       21 -1    0    0  503  502 +0.0000000000e+00 +0.0000000000e+00 +8.5094098291e+01 8.5094098291e+01 0.0000000000e+00 0.0000e+00 1.0000e+00
       21 -1    0    0  501  503 -0.0000000000e+00 -0.0000000000e+00 -4.2238062178e+02 4.2238062178e+02 0.0000000000e+00 0.0000e+00 -1.0000e+00
        6  1    1    2  501    0 -6.8382186281e+01 +1.6748456451e+01 -2.1214534404e+02 2.8265045762e+02 1.7300000000e+02 0.0000e+00 -1.0000e+00
       -6  1    1    2    0  502 +6.8382186281e+01 -1.6748456451e+01 -1.2514117945e+02 2.2482426246e+02 1.7300000000e+02 0.0000e+00 1.0000e+00
<mgrwt>
<rscale>  2 0.18677696E+03</rscale>
<asrwt>0</asrwt>
<pdfrwt beam="1">  1       21 0.13091399E-01 0.18677696E+03</pdfrwt>
<pdfrwt beam="2">  1       21 0.64981635E-01 0.18677696E+03</pdfrwt>
<totfact> 0.10970349E+05</totfact>
</mgrwt>
<rwgt>
<wgt id='1'> +6.4404596e+02 </wgt>
<wgt id='2'> +6.2920283e+02 </wgt>
<wgt id='3'> +5.0481800e+02 </wgt>
<wgt id='4'> +6.4404596e+02 </wgt>
<wgt id='5'> +5.0225798e+02 </wgt>
<wgt id='6'> +6.2037294e+02 </wgt>
<wgt id='7'> +6.0494477e+02 </wgt>
<wgt id='8'> +4.7693150e+02 </wgt>
<wgt id='9'> +6.2037293e+02 </wgt>
<wgt id='10'> +4.7443969e+02 </wgt>
<wgt id='11'> +5.8610310e+02 </wgt>
<wgt id='12'> +5.7121594e+02 </wgt>
<wgt id='13'> +4.4988710e+02 </wgt>
<wgt id='14'> +5.8610310e+02 </wgt>
<wgt id='15'> +4.4752969e+02 </wgt>
<wgt id='16'> +5.2408152e+02 </wgt>
<wgt id='17'> +5.1362733e+02 </wgt>
<wgt id='18'> +4.2463027e+02 </wgt>
<wgt id='19'> +5.2408152e+02 </wgt>
<wgt id='20'> +4.2266020e+02 </wgt>
<wgt id='21'> +4.9382512e+02 </wgt>
<wgt id='22'> +4.0117340e+02 </wgt>
<wgt id='23'> +5.0481800e+02 </wgt>
<wgt id='24'> +3.9925054e+02 </wgt>
<wgt id='25'> +4.7693150e+02 </wgt>
<wgt id='26'> +4.6629180e+02 </wgt>
<wgt id='27'> +3.7842486e+02 </wgt>
<wgt id='28'> +4.7693150e+02 </wgt>
<wgt id='29'> +3.7660524e+02 </wgt>
<wgt id='30'> +4.4083389e+02 </wgt>
<wgt id='31'> +4.3280064e+02 </wgt>
<wgt id='32'> +3.6220612e+02 </wgt>
<wgt id='33'> +4.4083388e+02 </wgt>
<wgt id='34'> +3.6062337e+02 </wgt>
<wgt id='35'> +4.2463027e+02 </wgt>
<wgt id='36'> +4.1611460e+02 </wgt>
<wgt id='37'> +3.4219760e+02 </wgt>
<wgt id='38'> +4.2463027e+02 </wgt>
<wgt id='39'> +3.4064971e+02 </wgt>
<wgt id='40'> +4.0117340e+02 </wgt>
<wgt id='41'> +3.9291404e+02 </wgt>
<wgt id='42'> +3.2279329e+02 </wgt>
<wgt id='43'> +4.0117340e+02 </wgt>
<wgt id='44'> +3.2132822e+02 </wgt>
<wgt id='45'> +5.0481800e+02 </wgt>
<wgt id='46'> +5.0642781e+02 </wgt>
<wgt id='47'> +5.1966899e+02 </wgt>
<wgt id='48'> +5.0580824e+02 </wgt>
<wgt id='49'> +5.0246258e+02 </wgt>
<wgt id='50'> +5.8296979e+02 </wgt>
<wgt id='51'> +4.9496815e+02 </wgt>
<wgt id='52'> +5.0330310e+02 </wgt>
<wgt id='53'> +5.0709290e+02 </wgt>
<wgt id='54'> +5.0840686e+02 </wgt>
<wgt id='55'> +4.6153957e+02 </wgt>
<wgt id='56'> +4.7001902e+02 </wgt>
<wgt id='57'> +4.9660173e+02 </wgt>
<wgt id='58'> +5.0698255e+02 </wgt>
<wgt id='59'> +5.0459349e+02 </wgt>
<wgt id='60'> +4.9121958e+02 </wgt>
<wgt id='61'> +4.8033153e+02 </wgt>
<wgt id='62'> +4.9757863e+02 </wgt>
<wgt id='63'> +5.0547413e+02 </wgt>
<wgt id='64'> +4.9961838e+02 </wgt>
<wgt id='65'> +5.7979599e+02 </wgt>
<wgt id='66'> +4.9363386e+02 </wgt>
<wgt id='67'> +5.0886754e+02 </wgt>
<wgt id='68'> +5.4218609e+02 </wgt>
<wgt id='69'> +4.9256415e+02 </wgt>
<wgt id='70'> +4.9762108e+02 </wgt>
<wgt id='71'> +5.1348665e+02 </wgt>
<wgt id='72'> +4.9435821e+02 </wgt>
<wgt id='73'> +4.9760974e+02 </wgt>
<wgt id='74'> +5.2120855e+02 </wgt>
<wgt id='75'> +5.1451932e+02 </wgt>
<wgt id='76'> +4.9374087e+02 </wgt>
<wgt id='77'> +4.8934861e+02 </wgt>
<wgt id='78'> +5.0038109e+02 </wgt>
<wgt id='79'> +4.8856349e+02 </wgt>
<wgt id='80'> +4.9900535e+02 </wgt>
<wgt id='81'> +4.9658091e+02 </wgt>
<wgt id='82'> +5.1278263e+02 </wgt>
<wgt id='83'> +5.1178607e+02 </wgt>
<wgt id='84'> +5.4706572e+02 </wgt>
<wgt id='85'> +5.2517529e+02 </wgt>
<wgt id='86'> +5.0168952e+02 </wgt>
<wgt id='87'> +5.0551076e+02 </wgt>
<wgt id='88'> +5.0979433e+02 </wgt>
<wgt id='89'> +5.1519163e+02 </wgt>
<wgt id='90'> +5.1215539e+02 </wgt>
<wgt id='91'> +5.3099606e+02 </wgt>
<wgt id='92'> +4.6953756e+02 </wgt>
<wgt id='93'> +4.9743216e+02 </wgt>
<wgt id='94'> +5.0100953e+02 </wgt>
<wgt id='95'> +4.8996580e+02 </wgt>
<wgt id='96'> +5.3944405e+02 </wgt>
<wgt id='97'> +5.0968725e+02 </wgt>
<wgt id='98'> +4.8518961e+02 </wgt>
<wgt id='99'> +4.8912999e+02 </wgt>
<wgt id='100'> +4.9672075e+02 </wgt>
<wgt id='101'> +5.3369725e+02 </wgt>
<wgt id='102'> +4.9584994e+02 </wgt>
<wgt id='103'> +5.4437061e+02 </wgt>
<wgt id='104'> +5.0346012e+02 </wgt>
<wgt id='105'> +5.2462520e+02 </wgt>
<wgt id='106'> +4.6796662e+02 </wgt>
<wgt id='107'> +4.9685219e+02 </wgt>
<wgt id='108'> +4.5474535e+02 </wgt>
<wgt id='109'> +4.7735696e+02 </wgt>
<wgt id='110'> +5.0572542e+02 </wgt>
<wgt id='111'> +4.9280854e+02 </wgt>
<wgt id='112'> +4.8202380e+02 </wgt>
<wgt id='113'> +4.6752027e+02 </wgt>
<wgt id='114'> +5.0242276e+02 </wgt>
<wgt id='115'> +4.9791472e+02 </wgt>
<wgt id='116'> +5.0623831e+02 </wgt>
<wgt id='117'> +5.0763982e+02 </wgt>
<wgt id='118'> +5.1810455e+02 </wgt>
<wgt id='119'> +4.8889197e+02 </wgt>
<wgt id='120'> +4.9829931e+02 </wgt>
<wgt id='121'> +4.9395559e+02 </wgt>
<wgt id='122'> +4.9937097e+02 </wgt>
<wgt id='123'> +5.0868409e+02 </wgt>
<wgt id='124'> +5.4016699e+02 </wgt>
<wgt id='125'> +5.4233897e+02 </wgt>
<wgt id='126'> +5.2088921e+02 </wgt>
<wgt id='127'> +5.1802179e+02 </wgt>
<wgt id='128'> +4.6713144e+02 </wgt>
<wgt id='129'> +5.6692796e+02 </wgt>
<wgt id='130'> +5.0389661e+02 </wgt>
<wgt id='131'> +5.3556304e+02 </wgt>
<wgt id='132'> +5.0829782e+02 </wgt>
<wgt id='133'> +5.0444848e+02 </wgt>
<wgt id='134'> +4.8085554e+02 </wgt>
<wgt id='135'> +5.1593907e+02 </wgt>
<wgt id='136'> +4.9459617e+02 </wgt>
<wgt id='137'> +4.7725551e+02 </wgt>
<wgt id='138'> +4.6112718e+02 </wgt>
<wgt id='139'> +5.1523321e+02 </wgt>
<wgt id='140'> +5.3137810e+02 </wgt>
<wgt id='141'> +5.0503856e+02 </wgt>
<wgt id='142'> +5.0121911e+02 </wgt>
<wgt id='143'> +5.0516949e+02 </wgt>
<wgt id='144'> +5.0420419e+02 </wgt>
<wgt id='145'> +5.0512364e+02 </wgt>
</rwgt>
</event>
<event>
 4      1 +5.0481800e+02 1.93001700e+02 7.54677100e-03 1.15578100e-01
       21 -1    0    0  501  502 +0.0000000000e+00 +0.0000000000e+00 +1.7175290986e+02 1.7175290986e+02 0.0000000000e+00 0.0000e+00 -1.0000e+00
       21 -1    0    0  502  503 -0.0000000000e+00 -0.0000000000e+00 -2.3481130480e+02 2.3481130480e+02 0.0000000000e+00 0.0000e+00 -1.0000e+00
        6  1    1    2  501    0 +8.0814490628e+01 +2.8101376204e+01 +2.4647057176e+01 1.9456913082e+02 1.7300000000e+02 0.0000e+00 -1.0000e+00
       -6  1    1    2    0  503 -8.0814490628e+01 -2.8101376204e+01 -8.7705452116e+01 2.1199508384e+02 1.7300000000e+02 0.0000e+00 -1.0000e+00
<mgrwt>
<rscale>  2 0.19300173E+03</rscale>
<asrwt>0</asrwt>
<pdfrwt beam="1">  1       21 0.26423525E-01 0.19300173E+03</pdfrwt>
<pdfrwt beam="2">  1       21 0.36124816E-01 0.19300173E+03</pdfrwt>
<totfact> 0.10066192E+05</totfact>
</mgrwt>
<rwgt>
<wgt id='1'> +6.4378908e+02 </wgt>
<wgt id='2'> +5.2989987e+02 </wgt>
<wgt id='3'> +5.0481800e+02 </wgt>
<wgt id='4'> +6.4378908e+02 </wgt>
<wgt id='5'> +4.9805050e+02 </wgt>
<wgt id='6'> +6.1941768e+02 </wgt>
<wgt id='7'> +5.0140237e+02 </wgt>
<wgt id='8'> +4.7678177e+02 </wgt>
<wgt id='9'> +6.1941768e+02 </wgt>
<wgt id='10'> +4.7027270e+02 </wgt>
<wgt id='11'> +5.8501690e+02 </wgt>
<wgt id='12'> +4.7309552e+02 </wgt>
<wgt id='13'> +4.4980470e+02 </wgt>
<wgt id='14'> +5.8501690e+02 </wgt>
<wgt id='15'> +4.4365032e+02 </wgt>
<wgt id='16'> +5.2468040e+02 </wgt>
<wgt id='17'> +4.4412087e+02 </wgt>
<wgt id='18'> +4.2502866e+02 </wgt>
<wgt id='19'> +5.2468040e+02 </wgt>
<wgt id='20'> +4.1975147e+02 </wgt>
<wgt id='21'> +4.2023649e+02 </wgt>
<wgt id='22'> +4.0142372e+02 </wgt>
<wgt id='23'> +5.0481800e+02 </wgt>
<wgt id='24'> +3.9634064e+02 </wgt>
<wgt id='25'> +4.7678178e+02 </wgt>
<wgt id='26'> +3.9651188e+02 </wgt>
<wgt id='27'> +3.7871053e+02 </wgt>
<wgt id='28'> +4.7678177e+02 </wgt>
<wgt id='29'> +3.7390360e+02 </wgt>
<wgt id='30'> +4.4175170e+02 </wgt>
<wgt id='31'> +3.7807019e+02 </wgt>
<wgt id='32'> +3.6276168e+02 </wgt>
<wgt id='33'> +4.4175170e+02 </wgt>
<wgt id='34'> +3.5851489e+02 </wgt>
<wgt id='35'> +4.2502867e+02 </wgt>
<wgt id='36'> +3.5773794e+02 </wgt>
<wgt id='37'> +3.4261488e+02 </wgt>
<wgt id='38'> +4.2502866e+02 </wgt>
<wgt id='39'> +3.3851941e+02 </wgt>
<wgt id='40'> +4.0142373e+02 </wgt>
<wgt id='41'> +3.3754171e+02 </wgt>
<wgt id='42'> +3.2322918e+02 </wgt>
<wgt id='43'> +4.0142372e+02 </wgt>
<wgt id='44'> +3.1935566e+02 </wgt>
<wgt id='45'> +5.0481800e+02 </wgt>
<wgt id='46'> +5.0166337e+02 </wgt>
<wgt id='47'> +5.2127838e+02 </wgt>
<wgt id='48'> +5.0444841e+02 </wgt>
<wgt id='49'> +5.0422947e+02 </wgt>
<wgt id='50'> +5.8070734e+02 </wgt>
<wgt id='51'> +4.9516247e+02 </wgt>
<wgt id='52'> +5.0097476e+02 </wgt>
<wgt id='53'> +5.1375797e+02 </wgt>
<wgt id='54'> +5.0761915e+02 </wgt>
<wgt id='55'> +4.5083564e+02 </wgt>
<wgt id='56'> +4.7344636e+02 </wgt>
<wgt id='57'> +4.9072531e+02 </wgt>
<wgt id='58'> +5.1121187e+02 </wgt>
<wgt id='59'> +4.9310057e+02 </wgt>
<wgt id='60'> +4.8040052e+02 </wgt>
<wgt id='61'> +4.9962573e+02 </wgt>
<wgt id='62'> +4.9778153e+02 </wgt>
<wgt id='63'> +5.0527524e+02 </wgt>
<wgt id='64'> +5.0322026e+02 </wgt>
<wgt id='65'> +5.9715219e+02 </wgt>
<wgt id='66'> +4.9223488e+02 </wgt>
<wgt id='67'> +5.0943668e+02 </wgt>
<wgt id='68'> +5.3649147e+02 </wgt>
<wgt id='69'> +4.8878464e+02 </wgt>
<wgt id='70'> +4.9701016e+02 </wgt>
<wgt id='71'> +5.1455207e+02 </wgt>
<wgt id='72'> +4.9585287e+02 </wgt>
<wgt id='73'> +4.9983223e+02 </wgt>
<wgt id='74'> +5.1611911e+02 </wgt>
<wgt id='75'> +5.1527361e+02 </wgt>
<wgt id='76'> +4.9047315e+02 </wgt>
<wgt id='77'> +4.8411987e+02 </wgt>
<wgt id='78'> +5.0940365e+02 </wgt>
<wgt id='79'> +4.8186118e+02 </wgt>
<wgt id='80'> +5.0201046e+02 </wgt>
<wgt id='81'> +4.9673490e+02 </wgt>
<wgt id='82'> +5.2104581e+02 </wgt>
<wgt id='83'> +5.1405926e+02 </wgt>
<wgt id='84'> +5.5334319e+02 </wgt>
<wgt id='85'> +5.3191559e+02 </wgt>
<wgt id='86'> +4.9961801e+02 </wgt>
<wgt id='87'> +5.0357489e+02 </wgt>
<wgt id='88'> +5.1307681e+02 </wgt>
<wgt id='89'> +5.1533194e+02 </wgt>
<wgt id='90'> +5.0894693e+02 </wgt>
<wgt id='91'> +5.3870161e+02 </wgt>
<wgt id='92'> +4.6974962e+02 </wgt>
<wgt id='93'> +4.9429978e+02 </wgt>
<wgt id='94'> +5.0460503e+02 </wgt>
<wgt id='95'> +4.8491863e+02 </wgt>
<wgt id='96'> +5.4186053e+02 </wgt>
<wgt id='97'> +5.1489384e+02 </wgt>
<wgt id='98'> +4.8050491e+02 </wgt>
<wgt id='99'> +4.9177297e+02 </wgt>
<wgt id='100'> +5.0697195e+02 </wgt>
<wgt id='101'> +5.2300851e+02 </wgt>
<wgt id='102'> +4.8416291e+02 </wgt>
<wgt id='103'> +5.4562641e+02 </wgt>
<wgt id='104'> +5.0240766e+02 </wgt>
<wgt id='105'> +5.2677767e+02 </wgt>
<wgt id='106'> +4.6945333e+02 </wgt>
<wgt id='107'> +5.0430010e+02 </wgt>
<wgt id='108'> +4.5770155e+02 </wgt>
<wgt id='109'> +4.7730029e+02 </wgt>
<wgt id='110'> +5.0681313e+02 </wgt>
<wgt id='111'> +4.9345886e+02 </wgt>
<wgt id='112'> +4.8500543e+02 </wgt>
<wgt id='113'> +4.6582964e+02 </wgt>
<wgt id='114'> +5.0916179e+02 </wgt>
<wgt id='115'> +5.1271821e+02 </wgt>
<wgt id='116'> +4.9939789e+02 </wgt>
<wgt id='117'> +5.1410526e+02 </wgt>
<wgt id='118'> +5.1303639e+02 </wgt>
<wgt id='119'> +4.8649045e+02 </wgt>
<wgt id='120'> +5.0728419e+02 </wgt>
<wgt id='121'> +4.9188994e+02 </wgt>
<wgt id='122'> +4.9881574e+02 </wgt>
<wgt id='123'> +5.1049342e+02 </wgt>
<wgt id='124'> +5.3290710e+02 </wgt>
<wgt id='125'> +5.3456606e+02 </wgt>
<wgt id='126'> +5.2262397e+02 </wgt>
<wgt id='127'> +5.1819257e+02 </wgt>
<wgt id='128'> +4.7236816e+02 </wgt>
<wgt id='129'> +5.6983573e+02 </wgt>
<wgt id='130'> +5.0851991e+02 </wgt>
<wgt id='131'> +5.4137047e+02 </wgt>
<wgt id='132'> +4.9456897e+02 </wgt>
<wgt id='133'> +4.9745368e+02 </wgt>
<wgt id='134'> +4.7348145e+02 </wgt>
<wgt id='135'> +5.1795401e+02 </wgt>
<wgt id='136'> +4.7985296e+02 </wgt>
<wgt id='137'> +4.7408651e+02 </wgt>
<wgt id='138'> +4.5533314e+02 </wgt>
<wgt id='139'> +5.1246408e+02 </wgt>
<wgt id='140'> +5.3919723e+02 </wgt>
<wgt id='141'> +5.0282536e+02 </wgt>
<wgt id='142'> +5.1361576e+02 </wgt>
<wgt id='143'> +4.9781059e+02 </wgt>
<wgt id='144'> +5.0689425e+02 </wgt>
<wgt id='145'> +5.0592503e+02 </wgt>
</rwgt>
</event>
<event>
 4      1 +5.0481800e+02 2.20154100e+02 7.54677100e-03 1.13376800e-01
       21 -1    0    0  503  502 +0.0000000000e+00 +0.0000000000e+00 +3.6531564962e+02 3.6531564962e+02 0.0000000000e+00 0.0000e+00 -1.0000e+00
       21 -1    0    0  501  503 -0.0000000000e+00 -0.0000000000e+00 -1.3364776589e+02 1.3364776589e+02 0.0000000000e+00 0.0000e+00 -1.0000e+00
        6  1    1    2  501    0 -9.5481292028e+01 -9.7067706559e+01 +9.4536428113e+01 2.3959330755e+02 1.7300000000e+02 0.0000e+00 -1.0000e+00
       -6  1    1    2    0  502 +9.5481292028e+01 +9.7067706559e+01 +1.3713145562e+02 2.5937010796e+02 1.7300000000e+02 0.0000e+00 -1.0000e+00
<mgrwt>
<rscale>  2 0.22015408E+03</rscale>
<asrwt>0</asrwt>
<pdfrwt beam="1">  1       21 0.56202407E-01 0.22015408E+03</pdfrwt>
<pdfrwt beam="2">  1       21 0.20561195E-01 0.22015408E+03</pdfrwt>
<totfact> 0.64509095E+04</totfact>
</mgrwt>
<rwgt>
<wgt id='1'> +6.4727171e+02 </wgt>
<wgt id='2'> +5.3174728e+02 </wgt>
<wgt id='3'> +5.0481800e+02 </wgt>
<wgt id='4'> +6.4727172e+02 </wgt>
<wgt id='5'> +5.0417661e+02 </wgt>
<wgt id='6'> +6.1497949e+02 </wgt>
<wgt id='7'> +4.9849001e+02 </wgt>
<wgt id='8'> +4.7307107e+02 </wgt>
<wgt id='9'> +6.1497949e+02 </wgt>
<wgt id='10'> +4.7247169e+02 </wgt>
<wgt id='11'> +5.7630474e+02 </wgt>
<wgt id='12'> +4.6706635e+02 </wgt>
<wgt id='13'> +4.4326492e+02 </wgt>
<wgt id='14'> +5.7630474e+02 </wgt>
<wgt id='15'> +4.4270389e+02 </wgt>
<wgt id='16'> +5.3132571e+02 </wgt>
<wgt id='17'> +4.4748908e+02 </wgt>
<wgt id='18'> +4.2623720e+02 </wgt>
<wgt id='19'> +5.3132571e+02 </wgt>
<wgt id='20'> +4.2572464e+02 </wgt>
<wgt id='21'> +4.1950160e+02 </wgt>
<wgt id='22'> +3.9943205e+02 </wgt>
<wgt id='23'> +5.0481800e+02 </wgt>
<wgt id='24'> +3.9895314e+02 </wgt>
<wgt id='25'> +4.7307107e+02 </wgt>
<wgt id='26'> +3.9305718e+02 </wgt>
<wgt id='27'> +3.7426557e+02 </wgt>
<wgt id='28'> +4.7307107e+02 </wgt>
<wgt id='29'> +3.7381733e+02 </wgt>
<wgt id='30'> +4.4861867e+02 </wgt>
<wgt id='31'> +3.8181498e+02 </wgt>
<wgt id='32'> +3.6464971e+02 </wgt>
<wgt id='33'> +4.4861867e+02 </wgt>
<wgt id='34'> +3.6423448e+02 </wgt>
<wgt id='35'> +4.2623719e+02 </wgt>
<wgt id='36'> +3.5793498e+02 </wgt>
<wgt id='37'> +3.4171766e+02 </wgt>
<wgt id='38'> +4.2623720e+02 </wgt>
<wgt id='39'> +3.4132976e+02 </wgt>
<wgt id='40'> +3.9943204e+02 </wgt>
<wgt id='41'> +3.3537159e+02 </wgt>
<wgt id='42'> +3.2018752e+02 </wgt>
<wgt id='43'> +3.9943205e+02 </wgt>
<wgt id='44'> +3.1982448e+02 </wgt>
<wgt id='45'> +5.0481800e+02 </wgt>
<wgt id='46'> +5.0667903e+02 </wgt>
<wgt id='47'> +5.2243851e+02 </wgt>
<wgt id='48'> +5.0689567e+02 </wgt>
<wgt id='49'> +5.0294193e+02 </wgt>
<wgt id='50'> +5.9018028e+02 </wgt>
<wgt id='51'> +4.9499378e+02 </wgt>
<wgt id='52'> +5.0249203e+02 </wgt>
<wgt id='53'> +5.0861665e+02 </wgt>
<wgt id='54'> +5.0807124e+02 </wgt>
<wgt id='55'> +4.5526812e+02 </wgt>
<wgt id='56'> +4.6857923e+02 </wgt>
<wgt id='57'> +4.9344420e+02 </wgt>
<wgt id='58'> +5.0618039e+02 </wgt>
<wgt id='59'> +5.0133697e+02 </wgt>
<wgt id='60'> +4.8766173e+02 </wgt>
<wgt id='61'> +4.8519611e+02 </wgt>
<wgt id='62'> +4.9811722e+02 </wgt>
<wgt id='63'> +5.0535092e+02 </wgt>
<wgt id='64'> +4.9878230e+02 </wgt>
<wgt id='65'> +5.8944379e+02 </wgt>
<wgt id='66'> +4.9358528e+02 </wgt>
<wgt id='67'> +5.0916977e+02 </wgt>
<wgt id='68'> +5.4268014e+02 </wgt>
<wgt id='69'> +4.9444827e+02 </wgt>
<wgt id='70'> +4.9672094e+02 </wgt>
<wgt id='71'> +5.1388573e+02 </wgt>
<wgt id='72'> +4.8968174e+02 </wgt>
<wgt id='73'> +4.9705347e+02 </wgt>
<wgt id='74'> +5.2169154e+02 </wgt>
<wgt id='75'> +5.1590724e+02 </wgt>
<wgt id='76'> +4.9132568e+02 </wgt>
<wgt id='77'> +4.8811199e+02 </wgt>
<wgt id='78'> +5.0183211e+02 </wgt>
<wgt id='79'> +4.8669238e+02 </wgt>
<wgt id='80'> +4.9936560e+02 </wgt>
<wgt id='81'> +4.9550264e+02 </wgt>
<wgt id='82'> +5.1540508e+02 </wgt>
<wgt id='83'> +5.1471768e+02 </wgt>
<wgt id='84'> +5.5235449e+02 </wgt>
<wgt id='85'> +5.2858374e+02 </wgt>
<wgt id='86'> +5.0250247e+02 </wgt>
<wgt id='87'> +5.0542890e+02 </wgt>
<wgt id='88'> +5.1272153e+02 </wgt>
<wgt id='89'> +5.1621720e+02 </wgt>
<wgt id='90'> +5.1131886e+02 </wgt>
<wgt id='91'> +5.3415764e+02 </wgt>
<wgt id='92'> +4.6425098e+02 </wgt>
<wgt id='93'> +4.9729651e+02 </wgt>
<wgt id='94'> +5.0066807e+02 </wgt>
<wgt id='95'> +4.8605432e+02 </wgt>
<wgt id='96'> +5.4469386e+02 </wgt>
<wgt id='97'> +5.1067950e+02 </wgt>
<wgt id='98'> +4.8360346e+02 </wgt>
<wgt id='99'> +4.8890438e+02 </wgt>
<wgt id='100'> +4.9675548e+02 </wgt>
<wgt id='101'> +5.3388978e+02 </wgt>
<wgt id='102'> +4.9468421e+02 </wgt>
<wgt id='103'> +5.4727071e+02 </wgt>
<wgt id='104'> +5.0473513e+02 </wgt>
<wgt id='105'> +5.2370492e+02 </wgt>
<wgt id='106'> +4.6393425e+02 </wgt>
<wgt id='107'> +4.9580191e+02 </wgt>
<wgt id='108'> +4.5169067e+02 </wgt>
<wgt id='109'> +4.7432595e+02 </wgt>
<wgt id='110'> +5.0499623e+02 </wgt>
<wgt id='111'> +4.9151944e+02 </wgt>
<wgt id='112'> +4.8092584e+02 </wgt>
<wgt id='113'> +4.6433515e+02 </wgt>
<wgt id='114'> +5.0131115e+02 </wgt>
<wgt id='115'> +5.0111677e+02 </wgt>
<wgt id='116'> +5.0702521e+02 </wgt>
<wgt id='117'> +5.0943725e+02 </wgt>
<wgt id='118'> +5.1926122e+02 </wgt>
<wgt id='119'> +4.8617182e+02 </wgt>
<wgt id='120'> +5.0010570e+02 </wgt>
<wgt id='121'> +4.9110511e+02 </wgt>
<wgt id='122'> +4.9847051e+02 </wgt>
<wgt id='123'> +5.1086536e+02 </wgt>
<wgt id='124'> +5.4138000e+02 </wgt>
<wgt id='125'> +5.4288702e+02 </wgt>
<wgt id='126'> +5.2361424e+02 </wgt>
<wgt id='127'> +5.1949214e+02 </wgt>
<wgt id='128'> +4.6751148e+02 </wgt>
<wgt id='129'> +5.6994897e+02 </wgt>
<wgt id='130'> +5.0757756e+02 </wgt>
<wgt id='131'> +5.3827222e+02 </wgt>
<wgt id='132'> +5.0393245e+02 </wgt>
<wgt id='133'> +5.0389943e+02 </wgt>
<wgt id='134'> +4.7757069e+02 </wgt>
<wgt id='135'> +5.1680736e+02 </wgt>
<wgt id='136'> +4.8914480e+02 </wgt>
<wgt id='137'> +4.7706779e+02 </wgt>
<wgt id='138'> +4.6202163e+02 </wgt>
<wgt id='139'> +5.1521459e+02 </wgt>
<wgt id='140'> +5.3362761e+02 </wgt>
<wgt id='141'> +5.0517463e+02 </wgt>
<wgt id='142'> +5.0357749e+02 </wgt>
<wgt id='143'> +5.0276544e+02 </wgt>
<wgt id='144'> +5.0310408e+02 </wgt>
<wgt id='145'> +5.0569853e+02 </wgt>
</rwgt>
</event>
<event>
 4      1 +5.0481800e+02 2.17507100e+02 7.54677100e-03 1.13575500e-01
       21 -1    0    0  503  502 +0.0000000000e+00 +0.0000000000e+00 +4.3687677860e+02 4.3687677860e+02 0.0000000000e+00 0.0000e+00 -1.0000e+00
       21 -1    0    0  501  503 -0.0000000000e+00 -0.0000000000e+00 -3.9741878304e+02 3.9741878304e+02 0.0000000000e+00 0.0000e+00 1.0000e+00
        6  1    1    2  501    0 -5.9802831608e+01 +1.1749029379e+02 -3.3607553243e+02 4.0032001112e+02 1.7300000000e+02 0.0000e+00 1.0000e+00
       -6  1    1    2    0  502 +5.9802831608e+01 -1.1749029379e+02 +3.7553352800e+02 4.3397555052e+02 1.7300000000e+02 0.0000e+00 -1.0000e+00
<mgrwt>
<rscale>  2 0.21750712E+03</rscale>
<asrwt>0</asrwt>
<pdfrwt beam="1">  1       21 0.67211812E-01 0.21750712E+03</pdfrwt>
<pdfrwt beam="2">  1       21 0.61141351E-01 0.21750712E+03</pdfrwt>
<totfact> 0.49472365E+03</totfact>
</mgrwt>
<rwgt>
<wgt id='1'> +6.7833570e+02 </wgt>
<wgt id='2'> +5.9854075e+02 </wgt>
<wgt id='3'> +5.0481800e+02 </wgt>
<wgt id='4'> +6.7833570e+02 </wgt>
<wgt id='5'> +3.8955328e+02 </wgt>
<wgt id='6'> +6.1539494e+02 </wgt>
<wgt id='7'> +5.3951989e+02 </wgt>
<wgt id='8'> +4.5387200e+02 </wgt>
<wgt id='9'> +6.1539494e+02 </wgt>
<wgt id='10'> +3.5156327e+02 </wgt>
<wgt id='11'> +5.5328957e+02 </wgt>
<wgt id='12'> +4.8589866e+02 </wgt>
<wgt id='13'> +4.0971077e+02 </wgt>
<wgt id='14'> +5.5328957e+02 </wgt>
<wgt id='15'> +3.1854694e+02 </wgt>
<wgt id='16'> +5.5644928e+02 </wgt>
<wgt id='17'> +4.9840829e+02 </wgt>
<wgt id='18'> +4.2614120e+02 </wgt>
<wgt id='19'> +5.5644928e+02 </wgt>
<wgt id='20'> +3.3294225e+02 </wgt>
<wgt id='21'> +4.4926129e+02 </wgt>
<wgt id='22'> +3.8313523e+02 </wgt>
<wgt id='23'> +5.0481800e+02 </wgt>
<wgt id='24'> +3.0047306e+02 </wgt>
<wgt id='25'> +4.5387201e+02 </wgt>
<wgt id='26'> +4.0461058e+02 </wgt>
<wgt id='27'> +3.4585660e+02 </wgt>
<wgt id='28'> +4.5387200e+02 </wgt>
<wgt id='29'> +2.7225476e+02 </wgt>
<wgt id='30'> +4.6972565e+02 </wgt>
<wgt id='31'> +4.2312124e+02 </wgt>
<wgt id='32'> +3.6449046e+02 </wgt>
<wgt id='33'> +4.6972565e+02 </wgt>
<wgt id='34'> +2.8783000e+02 </wgt>
<wgt id='35'> +4.2614120e+02 </wgt>
<wgt id='36'> +3.8139814e+02 </wgt>
<wgt id='37'> +3.2770625e+02 </wgt>
<wgt id='38'> +4.2614120e+02 </wgt>
<wgt id='39'> +2.5976025e+02 </wgt>
<wgt id='40'> +3.8313523e+02 </wgt>
<wgt id='41'> +3.4349214e+02 </wgt>
<wgt id='42'> +2.9582080e+02 </wgt>
<wgt id='43'> +3.8313523e+02 </wgt>
<wgt id='44'> +2.3536541e+02 </wgt>
<wgt id='45'> +5.0481800e+02 </wgt>
<wgt id='46'> +5.2269605e+02 </wgt>
<wgt id='47'> +5.3117928e+02 </wgt>
<wgt id='48'> +5.1646050e+02 </wgt>
<wgt id='49'> +5.0046521e+02 </wgt>
<wgt id='50'> +6.3847023e+02 </wgt>
<wgt id='51'> +4.9406527e+02 </wgt>
<wgt id='52'> +5.0637289e+02 </wgt>
<wgt id='53'> +4.9587094e+02 </wgt>
<wgt id='54'> +5.0952717e+02 </wgt>
<wgt id='55'> +4.5469557e+02 </wgt>
<wgt id='56'> +4.4963924e+02 </wgt>
<wgt id='57'> +4.9560093e+02 </wgt>
<wgt id='58'> +4.9076034e+02 </wgt>
<wgt id='59'> +5.2143044e+02 </wgt>
<wgt id='60'> +5.0386107e+02 </wgt>
<wgt id='61'> +4.4611901e+02 </wgt>
<wgt id='62'> +4.9984217e+02 </wgt>
<wgt id='63'> +5.0552161e+02 </wgt>
<wgt id='64'> +4.8499100e+02 </wgt>
<wgt id='65'> +5.8670938e+02 </wgt>
<wgt id='66'> +4.9610977e+02 </wgt>
<wgt id='67'> +5.0878196e+02 </wgt>
<wgt id='68'> +5.6528630e+02 </wgt>
<wgt id='69'> +5.1371293e+02 </wgt>
<wgt id='70'> +4.9359493e+02 </wgt>
<wgt id='71'> +5.1266544e+02 </wgt>
<wgt id='72'> +4.6353339e+02 </wgt>
<wgt id='73'> +4.8808160e+02 </wgt>
<wgt id='74'> +5.4108640e+02 </wgt>
<wgt id='75'> +5.2060958e+02 </wgt>
<wgt id='76'> +4.8842695e+02 </wgt>
<wgt id='77'> +4.9736984e+02 </wgt>
<wgt id='78'> +4.8197876e+02 </wgt>
<wgt id='79'> +4.9700294e+02 </wgt>
<wgt id='80'> +4.9122687e+02 </wgt>
<wgt id='81'> +4.8915912e+02 </wgt>
<wgt id='82'> +5.0352280e+02 </wgt>
<wgt id='83'> +5.2198300e+02 </wgt>
<wgt id='84'> +5.6061617e+02 </wgt>
<wgt id='85'> +5.2692848e+02 </wgt>
<wgt id='86'> +5.1234113e+02 </wgt>
<wgt id='87'> +5.1131966e+02 </wgt>
<wgt id='88'> +5.1591325e+02 </wgt>
<wgt id='89'> +5.2269809e+02 </wgt>
<wgt id='90'> +5.1774246e+02 </wgt>
<wgt id='91'> +5.2762436e+02 </wgt>
<wgt id='92'> +4.3640102e+02 </wgt>
<wgt id='93'> +5.0598719e+02 </wgt>
<wgt id='94'> +4.8810564e+02 </wgt>
<wgt id='95'> +4.8173426e+02 </wgt>
<wgt id='96'> +5.6504378e+02 </wgt>
<wgt id='97'> +5.0003787e+02 </wgt>
<wgt id='98'> +4.8776601e+02 </wgt>
<wgt id='99'> +4.7981130e+02 </wgt>
<wgt id='100'> +4.6714333e+02 </wgt>
<wgt id='101'> +5.7093393e+02 </wgt>
<wgt id='102'> +5.2468152e+02 </wgt>
<wgt id='103'> +5.6116722e+02 </wgt>
<wgt id='104'> +5.1354237e+02 </wgt>
<wgt id='105'> +5.1438839e+02 </wgt>
<wgt id='106'> +4.3861137e+02 </wgt>
<wgt id='107'> +4.6910562e+02 </wgt>
<wgt id='108'> +4.2542536e+02 </wgt>
<wgt id='109'> +4.5914552e+02 </wgt>
<wgt id='110'> +4.9907958e+02 </wgt>
<wgt id='111'> +4.8246574e+02 </wgt>
<wgt id='112'> +4.6577625e+02 </wgt>
<wgt id='113'> +4.5193784e+02 </wgt>
<wgt id='114'> +4.7694089e+02 </wgt>
<wgt id='115'> +4.7198917e+02 </wgt>
<wgt id='116'> +5.3232841e+02 </wgt>
<wgt id='117'> +4.9882170e+02 </wgt>
<wgt id='118'> +5.4171775e+02 </wgt>
<wgt id='119'> +4.7962902e+02 </wgt>
<wgt id='120'> +4.8325845e+02 </wgt>
<wgt id='121'> +4.8425332e+02 </wgt>
<wgt id='122'> +4.9566480e+02 </wgt>
<wgt id='123'> +5.1584367e+02 </wgt>
<wgt id='124'> +5.7263717e+02 </wgt>
<wgt id='125'> +5.7257755e+02 </wgt>
<wgt id='126'> +5.3258559e+02 </wgt>
<wgt id='127'> +5.2737992e+02 </wgt>
<wgt id='128'> +4.5075423e+02 </wgt>
<wgt id='129'> +5.8045228e+02 </wgt>
<wgt id='130'> +5.0961224e+02 </wgt>
<wgt id='131'> +5.3602152e+02 </wgt>
<wgt id='132'> +5.2542361e+02 </wgt>
<wgt id='133'> +5.2295859e+02 </wgt>
<wgt id='134'> +4.8218881e+02 </wgt>
<wgt id='135'> +5.1631888e+02 </wgt>
<wgt id='136'> +5.0795597e+02 </wgt>
<wgt id='137'> +4.8312775e+02 </wgt>
<wgt id='138'> +4.8026353e+02 </wgt>
<wgt id='139'> +5.2517258e+02 </wgt>
<wgt id='140'> +5.2324192e+02 </wgt>
<wgt id='141'> +5.1193634e+02 </wgt>
<wgt id='142'> +4.7730997e+02 </wgt>
<wgt id='143'> +5.1355111e+02 </wgt>
<wgt id='144'> +4.9020767e+02 </wgt>
<wgt id='145'> +5.0532099e+02 </wgt>
</rwgt>
</event>
<event>
 4      1 +5.0481800e+02 2.06522400e+02 7.54677100e-03 1.14435000e-01
       21 -1    0    0  501  502 +0.0000000000e+00 +0.0000000000e+00 +5.3876501760e+02 5.3876501760e+02 0.0000000000e+00 0.0000e+00 1.0000e+00
       21 -1    0    0  502  503 -0.0000000000e+00 -0.0000000000e+00 -1.0143650551e+02 1.0143650551e+02 0.0000000000e+00 0.0000e+00 1.0000e+00
        6  1    1    2  501    0 -3.5367213691e+01 +1.0710587095e+02 +3.6865387176e+02 4.2256027328e+02 1.7300000000e+02 0.0000e+00 1.0000e+00
       -6  1    1    2    0  503 +3.5367213691e+01 -1.0710587095e+02 +6.8674640335e+01 2.1764124982e+02 1.7300000000e+02 0.0000e+00 1.0000e+00
<mgrwt>
<rscale>  2 0.20652241E+03</rscale>
<asrwt>0</asrwt>
<pdfrwt beam="1">  1       21 0.82886924E-01 0.20652241E+03</pdfrwt>
<pdfrwt beam="2">  1       21 0.15605617E-01 0.20652241E+03</pdfrwt>
<totfact> 0.45991742E+04</totfact>
</mgrwt>
<rwgt>
<wgt id='1'> +6.5320551e+02 </wgt>
<wgt id='2'> +5.6085187e+02 </wgt>
<wgt id='3'> +5.0481800e+02 </wgt>
<wgt id='4'> +6.5320550e+02 </wgt>
<wgt id='5'> +4.8289441e+02 </wgt>
<wgt id='6'> +6.1720044e+02 </wgt>
<wgt id='7'> +5.2366283e+02 </wgt>
<wgt id='8'> +4.6976902e+02 </wgt>
<wgt id='9'> +6.1720043e+02 </wgt>
<wgt id='10'> +4.4943186e+02 </wgt>
<wgt id='11'> +5.7434887e+02 </wgt>
<wgt id='12'> +4.8740701e+02 </wgt>
<wgt id='13'> +4.3734016e+02 </wgt>
<wgt id='14'> +5.7434886e+02 </wgt>
<wgt id='15'> +4.1846280e+02 </wgt>
<wgt id='16'> +5.3426712e+02 </wgt>
<wgt id='17'> +4.6851945e+02 </wgt>
<wgt id='18'> +4.2571335e+02 </wgt>
<wgt id='19'> +5.3426711e+02 </wgt>
<wgt id='20'> +4.0820066e+02 </wgt>
<wgt id='21'> +4.3745280e+02 </wgt>
<wgt id='22'> +3.9615653e+02 </wgt>
<wgt id='23'> +5.0481800e+02 </wgt>
<wgt id='24'> +3.7991407e+02 </wgt>
<wgt id='25'> +4.6976902e+02 </wgt>
<wgt id='26'> +4.0716574e+02 </wgt>
<wgt id='27'> +3.6880925e+02 </wgt>
<wgt id='28'> +4.6976902e+02 </wgt>
<wgt id='29'> +3.5373528e+02 </wgt>
<wgt id='30'> +4.5054782e+02 </wgt>
<wgt id='31'> +3.9824448e+02 </wgt>
<wgt id='32'> +3.6379036e+02 </wgt>
<wgt id='33'> +4.5054781e+02 </wgt>
<wgt id='34'> +3.4958439e+02 </wgt>
<wgt id='35'> +4.2571336e+02 </wgt>
<wgt id='36'> +3.7183763e+02 </wgt>
<wgt id='37'> +3.3853278e+02 </wgt>
<wgt id='38'> +4.2571335e+02 </wgt>
<wgt id='39'> +3.2535966e+02 </wgt>
<wgt id='40'> +3.9615653e+02 </wgt>
<wgt id='41'> +3.4609344e+02 </wgt>
<wgt id='42'> +3.1516335e+02 </wgt>
<wgt id='43'> +3.9615653e+02 </wgt>
<wgt id='44'> +3.0294006e+02 </wgt>
<wgt id='45'> +5.0481800e+02 </wgt>
<wgt id='46'> +5.1197357e+02 </wgt>
<wgt id='47'> +5.2153245e+02 </wgt>
<wgt id='48'> +5.0828925e+02 </wgt>
<wgt id='49'> +4.9942073e+02 </wgt>
<wgt id='50'> +5.9685795e+02 </wgt>
<wgt id='51'> +4.9355854e+02 </wgt>
<wgt id='52'> +5.0350263e+02 </wgt>
<wgt id='53'> +5.0276013e+02 </wgt>
<wgt id='54'> +5.1074600e+02 </wgt>
<wgt id='55'> +4.6805582e+02 </wgt>
<wgt id='56'> +4.6403189e+02 </wgt>
<wgt id='57'> +5.0098659e+02 </wgt>
<wgt id='58'> +4.9934283e+02 </wgt>
<wgt id='59'> +5.1411395e+02 </wgt>
<wgt id='60'> +4.9702300e+02 </wgt>
<wgt id='61'> +4.5838864e+02 </wgt>
<wgt id='62'> +4.9651329e+02 </wgt>
<wgt id='63'> +5.0624854e+02 </wgt>
<wgt id='64'> +4.9633974e+02 </wgt>
<wgt id='65'> +5.7310890e+02 </wgt>
<wgt id='66'> +4.9506154e+02 </wgt>
<wgt id='67'> +5.0841107e+02 </wgt>
<wgt id='68'> +5.5123067e+02 </wgt>
<wgt id='69'> +5.0037317e+02 </wgt>
<wgt id='70'> +4.9778769e+02 </wgt>
<wgt id='71'> +5.1155752e+02 </wgt>
<wgt id='72'> +4.8697297e+02 </wgt>
<wgt id='73'> +4.9241469e+02 </wgt>
<wgt id='74'> +5.2889523e+02 </wgt>
<wgt id='75'> +5.1645091e+02 </wgt>
<wgt id='76'> +4.9538855e+02 </wgt>
<wgt id='77'> +4.9217239e+02 </wgt>
<wgt id='78'> +4.9072830e+02 </wgt>
<wgt id='79'> +4.9391795e+02 </wgt>
<wgt id='80'> +4.9417532e+02 </wgt>
<wgt id='81'> +4.9549030e+02 </wgt>
<wgt id='82'> +5.0507978e+02 </wgt>
<wgt id='83'> +5.1267490e+02 </wgt>
<wgt id='84'> +5.4640977e+02 </wgt>
<wgt id='85'> +5.2019252e+02 </wgt>
<wgt id='86'> +5.0543187e+02 </wgt>
<wgt id='87'> +5.0711807e+02 </wgt>
<wgt id='88'> +5.0933995e+02 </wgt>
<wgt id='89'> +5.1327779e+02 </wgt>
<wgt id='90'> +5.1320219e+02 </wgt>
<wgt id='91'> +5.2411426e+02 </wgt>
<wgt id='92'> +4.6251408e+02 </wgt>
<wgt id='93'> +5.0036246e+02 </wgt>
<wgt id='94'> +4.9511535e+02 </wgt>
<wgt id='95'> +4.9309289e+02 </wgt>
<wgt id='96'> +5.4251270e+02 </wgt>
<wgt id='97'> +5.0396974e+02 </wgt>
<wgt id='98'> +4.8952395e+02 </wgt>
<wgt id='99'> +4.8293224e+02 </wgt>
<wgt id='100'> +4.8152319e+02 </wgt>
<wgt id='101'> +5.4737722e+02 </wgt>
<wgt id='102'> +5.0887207e+02 </wgt>
<wgt id='103'> +5.4494317e+02 </wgt>
<wgt id='104'> +5.0761817e+02 </wgt>
<wgt id='105'> +5.2206679e+02 </wgt>
<wgt id='106'> +4.6226463e+02 </wgt>
<wgt id='107'> +4.8744620e+02 </wgt>
<wgt id='108'> +4.4827445e+02 </wgt>
<wgt id='109'> +4.7499479e+02 </wgt>
<wgt id='110'> +5.0208565e+02 </wgt>
<wgt id='111'> +4.9123063e+02 </wgt>
<wgt id='112'> +4.7929043e+02 </wgt>
<wgt id='113'> +4.6683287e+02 </wgt>
<wgt id='114'> +4.9712909e+02 </wgt>
<wgt id='115'> +4.8785985e+02 </wgt>
<wgt id='116'> +5.1591186e+02 </wgt>
<wgt id='117'> +5.0344480e+02 </wgt>
<wgt id='118'> +5.2506091e+02 </wgt>
<wgt id='119'> +4.9023058e+02 </wgt>
<wgt id='120'> +4.9536953e+02 </wgt>
<wgt id='121'> +4.9354785e+02 </wgt>
<wgt id='122'> +4.9916222e+02 </wgt>
<wgt id='123'> +5.0915334e+02 </wgt>
<wgt id='124'> +5.5111350e+02 </wgt>
<wgt id='125'> +5.5478825e+02 </wgt>
<wgt id='126'> +5.2161668e+02 </wgt>
<wgt id='127'> +5.1848319e+02 </wgt>
<wgt id='128'> +4.6256341e+02 </wgt>
<wgt id='129'> +5.6713103e+02 </wgt>
<wgt id='130'> +5.0252183e+02 </wgt>
<wgt id='131'> +5.3069814e+02 </wgt>
<wgt id='132'> +5.1886102e+02 </wgt>
<wgt id='133'> +5.1256049e+02 </wgt>
<wgt id='134'> +4.8548772e+02 </wgt>
<wgt id='135'> +5.1376528e+02 </wgt>
<wgt id='136'> +5.0748366e+02 </wgt>
<wgt id='137'> +4.8125584e+02 </wgt>
<wgt id='138'> +4.6935257e+02 </wgt>
<wgt id='139'> +5.1807101e+02 </wgt>
<wgt id='140'> +5.2537346e+02 </wgt>
<wgt id='141'> +5.0982326e+02 </wgt>
<wgt id='142'> +4.8568151e+02 </wgt>
<wgt id='143'> +5.0983225e+02 </wgt>
<wgt id='144'> +4.9805801e+02 </wgt>
<wgt id='145'> +5.0330737e+02 </wgt>
</rwgt>
</event>
<event>
 4      1 +5.0481800e+02 2.44027000e+02 7.54677100e-03 1.11713900e-01
       21 -1    0    0  503  502 +0.0000000000e+00 +0.0000000000e+00 +6.1172181306e+02 6.1172181306e+02 0.0000000000e+00 0.0000e+00 1.0000e+00
       21 -1    0    0  501  503 -0.0000000000e+00 -0.0000000000e+00 -9.7374970426e+01 9.7374970426e+01 0.0000000000e+00 0.0000e+00 -1.0000e+00
        6  1    1    2  501    0 -1.5881547693e+02 +6.6316210294e+01 +2.6319782077e+02 3.5891821954e+02 1.7300000000e+02 0.0000e+00 1.0000e+00
       -6  1    1    2    0  502 +1.5881547693e+02 -6.6316210294e+01 +2.5114902186e+02 3.5017856394e+02 1.7300000000e+02 0.0000e+00 -1.0000e+00
<mgrwt>
<rscale>  2 0.24402704E+03</rscale>
<asrwt>0</asrwt>
<pdfrwt beam="1">  1       21 0.94111046E-01 0.24402704E+03</pdfrwt>
<pdfrwt beam="2">  1       21 0.14980765E-01 0.24402704E+03</pdfrwt>
<totfact> 0.36282776E+04</totfact>
</mgrwt>
<rwgt>
<wgt id='1'> +6.5378890e+02 </wgt>
<wgt id='2'> +5.4565890e+02 </wgt>
<wgt id='3'> +5.0481800e+02 </wgt>
<wgt id='4'> +6.5378891e+02 </wgt>
<wgt id='5'> +5.0479164e+02 </wgt>
<wgt id='6'> +6.1162546e+02 </wgt>
<wgt id='7'> +5.0552521e+02 </wgt>
<wgt id='8'> +4.6776957e+02 </wgt>
<wgt id='9'> +6.1162547e+02 </wgt>
<wgt id='10'> +4.6774519e+02 </wgt>
<wgt id='11'> +5.6673847e+02 </wgt>
<wgt id='12'> +4.6865469e+02 </wgt>
<wgt id='13'> +4.3379707e+02 </wgt>
<wgt id='14'> +5.6673847e+02 </wgt>
<wgt id='15'> +4.3377456e+02 </wgt>
<wgt id='16'> +5.3961849e+02 </wgt>
<wgt id='17'> +4.5967433e+02 </wgt>
<wgt id='18'> +4.2710542e+02 </wgt>
<wgt id='19'> +5.3961849e+02 </wgt>
<wgt id='20'> +4.2708436e+02 </wgt>
<wgt id='21'> +4.2586488e+02 </wgt>
<wgt id='22'> +3.9576029e+02 </wgt>
<wgt id='23'> +5.0481800e+02 </wgt>
<wgt id='24'> +3.9574081e+02 </wgt>
<wgt id='25'> +4.6776957e+02 </wgt>
<wgt id='26'> +3.9480439e+02 </wgt>
<wgt id='27'> +3.6701757e+02 </wgt>
<wgt id='28'> +4.6776957e+02 </wgt>
<wgt id='29'> +3.6699959e+02 </wgt>
<wgt id='30'> +4.5654866e+02 </wgt>
<wgt id='31'> +3.9248410e+02 </wgt>
<wgt id='32'> +3.6604637e+02 </wgt>
<wgt id='33'> +4.5654866e+02 </wgt>
<wgt id='34'> +3.6602923e+02 </wgt>
<wgt id='35'> +4.2710542e+02 </wgt>
<wgt id='36'> +3.6361655e+02 </wgt>
<wgt id='37'> +3.3918235e+02 </wgt>
<wgt id='38'> +4.2710542e+02 </wgt>
<wgt id='39'> +3.3916649e+02 </wgt>
<wgt id='40'> +3.9576029e+02 </wgt>
<wgt id='41'> +3.3709615e+02 </wgt>
<wgt id='42'> +3.1454869e+02 </wgt>
<wgt id='43'> +3.9576029e+02 </wgt>
<wgt id='44'> +3.1453407e+02 </wgt>
<wgt id='45'> +5.0481800e+02 </wgt>
<wgt id='46'> +5.1445240e+02 </wgt>
<wgt id='47'> +5.2131399e+02 </wgt>
<wgt id='48'> +5.0830766e+02 </wgt>
<wgt id='49'> +4.9658826e+02 </wgt>
<wgt id='50'> +5.9962088e+02 </wgt>
<wgt id='51'> +4.9227135e+02 </wgt>
<wgt id='52'> +5.0250229e+02 </wgt>
<wgt id='53'> +5.0060419e+02 </wgt>
<wgt id='54'> +5.1287094e+02 </wgt>
<wgt id='55'> +4.7644524e+02 </wgt>
<wgt id='56'> +4.6314125e+02 </wgt>
<wgt id='57'> +5.0513376e+02 </wgt>
<wgt id='58'> +4.9443190e+02 </wgt>
<wgt id='59'> +5.2010658e+02 </wgt>
<wgt id='60'> +5.0049112e+02 </wgt>
<wgt id='61'> +4.5083041e+02 </wgt>
<wgt id='62'> +4.9480163e+02 </wgt>
<wgt id='63'> +5.0756081e+02 </wgt>
<wgt id='64'> +4.9582419e+02 </wgt>
<wgt id='65'> +5.6297583e+02 </wgt>
<wgt id='66'> +4.9660291e+02 </wgt>
<wgt id='67'> +5.0798608e+02 </wgt>
<wgt id='68'> +5.5558232e+02 </wgt>
<wgt id='69'> +5.0486306e+02 </wgt>
<wgt id='70'> +4.9959985e+02 </wgt>
<wgt id='71'> +5.0900454e+02 </wgt>
<wgt id='72'> +4.8434276e+02 </wgt>
<wgt id='73'> +4.8869159e+02 </wgt>
<wgt id='74'> +5.3323721e+02 </wgt>
<wgt id='75'> +5.1749028e+02 </wgt>
<wgt id='76'> +4.9783879e+02 </wgt>
<wgt id='77'> +4.9329130e+02 </wgt>
<wgt id='78'> +4.8431689e+02 </wgt>
<wgt id='79'> +4.9836353e+02 </wgt>
<wgt id='80'> +4.9092824e+02 </wgt>
<wgt id='81'> +4.9627483e+02 </wgt>
<wgt id='82'> +5.0014500e+02 </wgt>
<wgt id='83'> +5.1156779e+02 </wgt>
<wgt id='84'> +5.4233011e+02 </wgt>
<wgt id='85'> +5.1436402e+02 </wgt>
<wgt id='86'> +5.0771065e+02 </wgt>
<wgt id='87'> +5.0738312e+02 </wgt>
<wgt id='88'> +5.0823778e+02 </wgt>
<wgt id='89'> +5.0877161e+02 </wgt>
<wgt id='90'> +5.1209734e+02 </wgt>
<wgt id='91'> +5.1698111e+02 </wgt>
<wgt id='92'> +4.6169842e+02 </wgt>
<wgt id='93'> +5.0197006e+02 </wgt>
<wgt id='94'> +4.9123217e+02 </wgt>
<wgt id='95'> +4.9722629e+02 </wgt>
<wgt id='96'> +5.4114925e+02 </wgt>
<wgt id='97'> +4.9950896e+02 </wgt>
<wgt id='98'> +4.9432032e+02 </wgt>
<wgt id='99'> +4.7817110e+02 </wgt>
<wgt id='100'> +4.7153361e+02 </wgt>
<wgt id='101'> +5.5406686e+02 </wgt>
<wgt id='102'> +5.1703624e+02 </wgt>
<wgt id='103'> +5.4121025e+02 </wgt>
<wgt id='104'> +5.1041359e+02 </wgt>
<wgt id='105'> +5.2071370e+02 </wgt>
<wgt id='106'> +4.6223965e+02 </wgt>
<wgt id='107'> +4.8366180e+02 </wgt>
<wgt id='108'> +4.4827235e+02 </wgt>
<wgt id='109'> +4.7626193e+02 </wgt>
<wgt id='110'> +4.9924196e+02 </wgt>
<wgt id='111'> +4.9124762e+02 </wgt>
<wgt id='112'> +4.8085231e+02 </wgt>
<wgt id='113'> +4.6998252e+02 </wgt>
<wgt id='114'> +4.9651182e+02 </wgt>
<wgt id='115'> +4.8269107e+02 </wgt>
<wgt id='116'> +5.2115891e+02 </wgt>
<wgt id='117'> +5.0086309e+02 </wgt>
<wgt id='118'> +5.2728328e+02 </wgt>
<wgt id='119'> +4.9393891e+02 </wgt>
<wgt id='120'> +4.9492395e+02 </wgt>
<wgt id='121'> +4.9455973e+02 </wgt>
<wgt id='122'> +4.9889395e+02 </wgt>
<wgt id='123'> +5.0795665e+02 </wgt>
<wgt id='124'> +5.5553457e+02 </wgt>
<wgt id='125'> +5.6190354e+02 </wgt>
<wgt id='126'> +5.1990390e+02 </wgt>
<wgt id='127'> +5.1662241e+02 </wgt>
<wgt id='128'> +4.6226250e+02 </wgt>
<wgt id='129'> +5.6332497e+02 </wgt>
<wgt id='130'> +5.0185073e+02 </wgt>
<wgt id='131'> +5.2523507e+02 </wgt>
<wgt id='132'> +5.2542962e+02 </wgt>
<wgt id='133'> +5.1744866e+02 </wgt>
<wgt id='134'> +4.9025805e+02 </wgt>
<wgt id='135'> +5.1113047e+02 </wgt>
<wgt id='136'> +5.1767702e+02 </wgt>
<wgt id='137'> +4.8508369e+02 </wgt>
<wgt id='138'> +4.7533748e+02 </wgt>
<wgt id='139'> +5.1895579e+02 </wgt>
<wgt id='140'> +5.2044820e+02 </wgt>
<wgt id='141'> +5.1427326e+02 </wgt>
<wgt id='142'> +4.7649269e+02 </wgt>
<wgt id='143'> +5.1256761e+02 </wgt>
<wgt id='144'> +4.9410727e+02 </wgt>
<wgt id='145'> +5.0055027e+02 </wgt>
</rwgt>
</event>
<event>
 4      1 +5.0481800e+02 1.94204800e+02 7.54677100e-03 1.15472300e-01
       21 -1    0    0  503  502 +0.0000000000e+00 +0.0000000000e+00 +3.9705996335e+02 3.9705996335e+02 0.0000000000e+00 0.0000e+00 1.0000e+00
       21 -1    0    0  501  503 -0.0000000000e+00 -0.0000000000e+00 -9.9612719522e+01 9.9612719522e+01 0.0000000000e+00 0.0000e+00 -1.0000e+00
        6  1    1    2  501    0 +7.1601854830e+01 +5.1572194905e+01 +9.5208731926e+01 2.1628735409e+02 1.7300000000e+02 0.0000e+00 -1.0000e+00
       -6  1    1    2    0  502 -7.1601854830e+01 -5.1572194905e+01 +2.0223851190e+02 2.8038532879e+02 1.7300000000e+02 0.0000e+00 1.0000e+00
<mgrwt>
<rscale>  2 0.19420483E+03</rscale>
<asrwt>0</asrwt>
<pdfrwt beam="1">  1       21 0.61086147E-01 0.19420483E+03</pdfrwt>
<pdfrwt beam="2">  1       21 0.15325034E-01 0.19420483E+03</pdfrwt>
<totfact> 0.93999022E+04</totfact>
</mgrwt>
<rwgt>
<wgt id='1'> +6.4516884e+02 </wgt>
<wgt id='2'> +5.8144979e+02 </wgt>
<wgt id='3'> +5.0481800e+02 </wgt>
<wgt id='4'> +6.4516884e+02 </wgt>
<wgt id='5'> +5.0071742e+02 </wgt>
<wgt id='6'> +6.1922911e+02 </wgt>
<wgt id='7'> +5.5290584e+02 </wgt>
<wgt id='8'> +4.7572318e+02 </wgt>
<wgt id='9'> +6.1922911e+02 </wgt>
<wgt id='10'> +4.7178832e+02 </wgt>
<wgt id='11'> +5.8354029e+02 </wgt>
<wgt id='12'> +5.2076649e+02 </wgt>
<wgt id='13'> +4.4787572e+02 </wgt>
<wgt id='14'> +5.8354028e+02 </wgt>
<wgt id='15'> +4.4416461e+02 </wgt>
<wgt id='16'> +5.2596501e+02 </wgt>
<wgt id='17'> +4.8139470e+02 </wgt>
<wgt id='18'> +4.2510093e+02 </wgt>
<wgt id='19'> +5.2596501e+02 </wgt>
<wgt id='20'> +4.2190275e+02 </wgt>
<wgt id='21'> +4.5776256e+02 </wgt>
<wgt id='22'> +4.0060055e+02 </wgt>
<wgt id='23'> +5.0481800e+02 </wgt>
<wgt id='24'> +3.9752720e+02 </wgt>
<wgt id='25'> +4.7572318e+02 </wgt>
<wgt id='26'> +4.3115370e+02 </wgt>
<wgt id='27'> +3.7715056e+02 </wgt>
<wgt id='28'> +4.7572318e+02 </wgt>
<wgt id='29'> +3.7425155e+02 </wgt>
<wgt id='30'> +4.4290857e+02 </wgt>
<wgt id='31'> +4.0777618e+02 </wgt>
<wgt id='32'> +3.6286418e+02 </wgt>
<wgt id='33'> +4.4290856e+02 </wgt>
<wgt id='34'> +3.6028904e+02 </wgt>
<wgt id='35'> +4.2510094e+02 </wgt>
<wgt id='36'> +3.8775804e+02 </wgt>
<wgt id='37'> +3.4195077e+02 </wgt>
<wgt id='38'> +4.2510093e+02 </wgt>
<wgt id='39'> +3.3947324e+02 </wgt>
<wgt id='40'> +4.0060055e+02 </wgt>
<wgt id='41'> +3.6521841e+02 </wgt>
<wgt id='42'> +3.2193396e+02 </wgt>
<wgt id='43'> +4.0060055e+02 </wgt>
<wgt id='44'> +3.1959672e+02 </wgt>
<wgt id='45'> +5.0481800e+02 </wgt>
<wgt id='46'> +5.0606965e+02 </wgt>
<wgt id='47'> +5.2057261e+02 </wgt>
<wgt id='48'> +5.0595893e+02 </wgt>
<wgt id='49'> +5.0274835e+02 </wgt>
<wgt id='50'> +5.8481309e+02 </wgt>
<wgt id='51'> +4.9499340e+02 </wgt>
<wgt id='52'> +5.0293189e+02 </wgt>
<wgt id='53'> +5.0804947e+02 </wgt>
<wgt id='54'> +5.0819079e+02 </wgt>
<wgt id='55'> +4.5882364e+02 </wgt>
<wgt id='56'> +4.6983060e+02 </wgt>
<wgt id='57'> +4.9523047e+02 </wgt>
<wgt id='58'> +5.0715955e+02 </wgt>
<wgt id='59'> +5.0273232e+02 </wgt>
<wgt id='60'> +4.8928638e+02 </wgt>
<wgt id='61'> +4.8361401e+02 </wgt>
<wgt id='62'> +4.9774127e+02 </wgt>
<wgt id='63'> +5.0537848e+02 </wgt>
<wgt id='64'> +4.9959408e+02 </wgt>
<wgt id='65'> +5.8408033e+02 </wgt>
<wgt id='66'> +4.9346705e+02 </wgt>
<wgt id='67'> +5.0901153e+02 </wgt>
<wgt id='68'> +5.4181324e+02 </wgt>
<wgt id='69'> +4.9267389e+02 </wgt>
<wgt id='70'> +4.9728574e+02 </wgt>
<wgt id='71'> +5.1377097e+02 </wgt>
<wgt id='72'> +4.9326806e+02 </wgt>
<wgt id='73'> +4.9766023e+02 </wgt>
<wgt id='74'> +5.2087208e+02 </wgt>
<wgt id='75'> +5.1492300e+02 </wgt>
<wgt id='76'> +4.9281087e+02 </wgt>
<wgt id='77'> +4.8855664e+02 </wgt>
<wgt id='78'> +5.0155622e+02 </wgt>
<wgt id='79'> +4.8741135e+02 </wgt>
<wgt id='80'> +4.9941045e+02 </wgt>
<wgt id='81'> +4.9627678e+02 </wgt>
<wgt id='82'> +5.1425178e+02 </wgt>
<wgt id='83'> +5.1279258e+02 </wgt>
<wgt id='84'> +5.4912687e+02 </wgt>
<wgt id='85'> +5.2670271e+02 </wgt>
<wgt id='86'> +5.0169835e+02 </wgt>
<wgt id='87'> +5.0532242e+02 </wgt>
<wgt id='88'> +5.1090848e+02 </wgt>
<wgt id='89'> +5.1554969e+02 </wgt>
<wgt id='90'> +5.1172026e+02 </wgt>
<wgt id='91'> +5.3259475e+02 </wgt>
<wgt id='92'> +4.6815596e+02 </wgt>
<wgt id='93'> +4.9708760e+02 </wgt>
<wgt id='94'> +5.0127325e+02 </wgt>
<wgt id='95'> +4.8843756e+02 </wgt>
<wgt id='96'> +5.4110912e+02 </wgt>
<wgt id='97'> +5.1045392e+02 </wgt>
<wgt id='98'> +4.8434852e+02 </wgt>
<wgt id='99'> +4.8930712e+02 </wgt>
<wgt id='100'> +4.9767565e+02 </wgt>
<wgt id='101'> +5.3282913e+02 </wgt>
<wgt id='102'> +4.9445923e+02 </wgt>
<wgt id='103'> +5.4536163e+02 </wgt>
<wgt id='104'> +5.0367465e+02 </wgt>
<wgt id='105'> +5.2460679e+02 </wgt>
<wgt id='106'> +4.6693129e+02 </wgt>
<wgt id='107'> +4.9718901e+02 </wgt>
<wgt id='108'> +4.5407261e+02 </wgt>
<wgt id='109'> +4.7644711e+02 </wgt>
<wgt id='110'> +5.0565179e+02 </wgt>
<wgt id='111'> +4.9251060e+02 </wgt>
<wgt id='112'> +4.8186376e+02 </wgt>
<wgt id='113'> +4.6640485e+02 </wgt>
<wgt id='114'> +5.0260890e+02 </wgt>
<wgt id='115'> +4.9993681e+02 </wgt>
<wgt id='116'> +5.0580900e+02 </wgt>
<wgt id='117'> +5.0865165e+02 </wgt>
<wgt id='118'> +5.1797762e+02 </wgt>
<wgt id='119'> +4.8787937e+02 </wgt>
<wgt id='120'> +4.9929955e+02 </wgt>
<wgt id='121'> +4.9297132e+02 </wgt>
<wgt id='122'> +4.9905888e+02 </wgt>
<wgt id='123'> +5.0942189e+02 </wgt>
<wgt id='124'> +5.3990272e+02 </wgt>
<wgt id='125'> +5.4179480e+02 </wgt>
<wgt id='126'> +5.2175143e+02 </wgt>
<wgt id='127'> +5.1846660e+02 </wgt>
<wgt id='128'> +4.6759017e+02 </wgt>
<wgt id='129'> +5.6813896e+02 </wgt>
<wgt id='130'> +5.0534414e+02 </wgt>
<wgt id='131'> +5.3689807e+02 </wgt>
<wgt id='132'> +5.0597935e+02 </wgt>
<wgt id='133'> +5.0365202e+02 </wgt>
<wgt id='134'> +4.7928874e+02 </wgt>
<wgt id='135'> +5.1639257e+02 </wgt>
<wgt id='136'> +4.9179918e+02 </wgt>
<wgt id='137'> +4.7685859e+02 </wgt>
<wgt id='138'> +4.6073561e+02 </wgt>
<wgt id='139'> +5.1499259e+02 </wgt>
<wgt id='140'> +5.3269330e+02 </wgt>
<wgt id='141'> +5.0484256e+02 </wgt>
<wgt id='142'> +5.0306511e+02 </wgt>
<wgt id='143'> +5.0391573e+02 </wgt>
<wgt id='144'> +5.0419131e+02 </wgt>
<wgt id='145'> +5.0542475e+02 </wgt>
</rwgt>
</event>
<event>
 4      1 +5.0481800e+02 2.10814900e+02 7.54677100e-03 1.14092200e-01
       21 -1    0    0  503  502 +0.0000000000e+00 +0.0000000000e+00 +1.6621148287e+02 1.6621148287e+02 0.0000000000e+00 0.0000e+00 -1.0000e+00
       21 -1    0    0  501  503 -0.0000000000e+00 -0.0000000000e+00 -3.6130188022e+02 3.6130188022e+02 0.0000000000e+00 0.0000e+00 -1.0000e+00
        6  1    1    2  501    0 -1.2024008579e+02 +7.4991476387e+00 -2.3201780285e+02 3.1348871796e+02 1.7300000000e+02 0.0000e+00 -1.0000e+00
       -6  1    1    2    0  502 +1.2024008579e+02 -7.4991476387e+00 +3.6927405502e+01 2.1402464513e+02 1.7300000000e+02 0.0000e+00 -1.0000e+00
<mgrwt>
<rscale>  2 0.21081488E+03</rscale>
<asrwt>0</asrwt>
<pdfrwt beam="1">  1       21 0.25570997E-01 0.21081488E+03</pdfrwt>
<pdfrwt beam="2">  1       21 0.55584905E-01 0.21081488E+03</pdfrwt>
<totfact> 0.43847281E+04</totfact>
</mgrwt>
<rwgt>
<wgt id='1'> +6.5233665e+02 </wgt>
<wgt id='2'> +5.4044623e+02 </wgt>
<wgt id='3'> +5.0481800e+02 </wgt>
<wgt id='4'> +6.5233664e+02 </wgt>
<wgt id='5'> +4.7849198e+02 </wgt>
<wgt id='6'> +6.1648412e+02 </wgt>
<wgt id='7'> +5.0399269e+02 </wgt>
<wgt id='8'> +4.7023744e+02 </wgt>
<wgt id='9'> +6.1648411e+02 </wgt>
<wgt id='10'> +4.4578475e+02 </wgt>
<wgt id='11'> +5.7425432e+02 </wgt>
<wgt id='12'> +4.6963072e+02 </wgt>
<wgt id='13'> +4.3825787e+02 </wgt>
<wgt id='14'> +5.7425432e+02 </wgt>
<wgt id='15'> +4.1554409e+02 </wgt>
<wgt id='16'> +5.3417642e+02 </wgt>
<wgt id='17'> +4.5362571e+02 </wgt>
<wgt id='18'> +4.2588852e+02 </wgt>
<wgt id='19'> +5.3417642e+02 </wgt>
<wgt id='20'> +4.0486627e+02 </wgt>
<wgt id='21'> +4.2302828e+02 </wgt>
<wgt id='22'> +3.9671472e+02 </wgt>
<wgt id='23'> +5.0481800e+02 </wgt>
<wgt id='24'> +3.7719171e+02 </wgt>
<wgt id='25'> +4.7023745e+02 </wgt>
<wgt id='26'> +3.9418642e+02 </wgt>
<wgt id='27'> +3.6973522e+02 </wgt>
<wgt id='28'> +4.7023744e+02 </wgt>
<wgt id='29'> +3.5160419e+02 </wgt>
<wgt id='30'> +4.5065669e+02 </wgt>
<wgt id='31'> +3.8645939e+02 </wgt>
<wgt id='32'> +3.6407371e+02 </wgt>
<wgt id='33'> +4.5065669e+02 </wgt>
<wgt id='34'> +3.4701176e+02 </wgt>
<wgt id='35'> +4.2588852e+02 </wgt>
<wgt id='36'> +3.6039238e+02 </wgt>
<wgt id='37'> +3.3913428e+02 </wgt>
<wgt id='38'> +4.2588852e+02 </wgt>
<wgt id='39'> +3.2329183e+02 </wgt>
<wgt id='40'> +3.9671472e+02 </wgt>
<wgt id='41'> +3.3582101e+02 </wgt>
<wgt id='42'> +3.1607068e+02 </wgt>
<wgt id='43'> +3.9671472e+02 </wgt>
<wgt id='44'> +3.0136072e+02 </wgt>
<wgt id='45'> +5.0481800e+02 </wgt>
<wgt id='46'> +5.0792338e+02 </wgt>
<wgt id='47'> +5.2405752e+02 </wgt>
<wgt id='48'> +5.0800136e+02 </wgt>
<wgt id='49'> +5.0317954e+02 </wgt>
<wgt id='50'> +5.9664545e+02 </wgt>
<wgt id='51'> +4.9496917e+02 </wgt>
<wgt id='52'> +5.0272034e+02 </wgt>
<wgt id='53'> +5.0810475e+02 </wgt>
<wgt id='54'> +5.0798917e+02 </wgt>
<wgt id='55'> +4.5231237e+02 </wgt>
<wgt id='56'> +4.6639353e+02 </wgt>
<wgt id='57'> +4.9222702e+02 </wgt>
<wgt id='58'> +5.0510506e+02 </wgt>
<wgt id='59'> +5.0157172e+02 </wgt>
<wgt id='60'> +4.8772957e+02 </wgt>
<wgt id='61'> +4.8385903e+02 </wgt>
<wgt id='62'> +4.9853585e+02 </wgt>
<wgt id='63'> +5.0528402e+02 </wgt>
<wgt id='64'> +4.9747243e+02 </wgt>
<wgt id='65'> +5.9319893e+02 </wgt>
<wgt id='66'> +4.9351489e+02 </wgt>
<wgt id='67'> +5.0924754e+02 </wgt>
<wgt id='68'> +5.4460324e+02 </wgt>
<wgt id='69'> +4.9608770e+02 </wgt>
<wgt id='70'> +4.9599890e+02 </wgt>
<wgt id='71'> +5.1405650e+02 </wgt>
<wgt id='72'> +4.8608949e+02 </wgt>
<wgt id='73'> +4.9644676e+02 </wgt>
<wgt id='74'> +5.2328867e+02 </wgt>
<wgt id='75'> +5.1668358e+02 </wgt>
<wgt id='76'> +4.8996681e+02 </wgt>
<wgt id='77'> +4.8834885e+02 </wgt>
<wgt id='78'> +5.0103863e+02 </wgt>
<wgt id='79'> +4.8654820e+02 </wgt>
<wgt id='80'> +4.9896702e+02 </wgt>
<wgt id='81'> +4.9449569e+02 </wgt>
<wgt id='82'> +5.1570676e+02 </wgt>
<wgt id='83'> +5.1630403e+02 </wgt>
<wgt id='84'> +5.5515151e+02 </wgt>
<wgt id='85'> +5.3022878e+02 </wgt>
<wgt id='86'> +5.0338056e+02 </wgt>
<wgt id='87'> +5.0592366e+02 </wgt>
<wgt id='88'> +5.1390269e+02 </wgt>
<wgt id='89'> +5.1764238e+02 </wgt>
<wgt id='90'> +5.1172036e+02 </wgt>
<wgt id='91'> +5.3526826e+02 </wgt>
<wgt id='92'> +4.5989653e+02 </wgt>
<wgt id='93'> +4.9786695e+02 </wgt>
<wgt id='94'> +4.9973133e+02 </wgt>
<wgt id='95'> +4.8400077e+02 </wgt>
<wgt id='96'> +5.4841706e+02 </wgt>
<wgt id='97'> +5.1040546e+02 </wgt>
<wgt id='98'> +4.8284610e+02 </wgt>
<wgt id='99'> +4.8843548e+02 </wgt>
<wgt id='100'> +4.9496516e+02 </wgt>
<wgt id='101'> +5.3674497e+02 </wgt>
<wgt id='102'> +4.9608752e+02 </wgt>
<wgt id='103'> +5.5001896e+02 </wgt>
<wgt id='104'> +5.0557614e+02 </wgt>
<wgt id='105'> +5.2284306e+02 </wgt>
<wgt id='106'> +4.6018633e+02 </wgt>
<wgt id='107'> +4.9344434e+02 </wgt>
<wgt id='108'> +4.4806154e+02 </wgt>
<wgt id='109'> +4.7184948e+02 </wgt>
<wgt id='110'> +5.0459260e+02 </wgt>
<wgt id='111'> +4.9017839e+02 </wgt>
<wgt id='112'> +4.7908165e+02 </wgt>
<wgt id='113'> +4.6179143e+02 </wgt>
<wgt id='114'> +4.9891043e+02 </wgt>
<wgt id='115'> +4.9977393e+02 </wgt>
<wgt id='116'> +5.0898992e+02 </wgt>
<wgt id='117'> +5.0927220e+02 </wgt>
<wgt id='118'> +5.2143383e+02 </wgt>
<wgt id='119'> +4.8441984e+02 </wgt>
<wgt id='120'> +4.9929901e+02 </wgt>
<wgt id='121'> +4.8959909e+02 </wgt>
<wgt id='122'> +4.9788661e+02 </wgt>
<wgt id='123'> +5.1202020e+02 </wgt>
<wgt id='124'> +5.4425972e+02 </wgt>
<wgt id='125'> +5.4527673e+02 </wgt>
<wgt id='126'> +5.2547252e+02 </wgt>
<wgt id='127'> +5.2089705e+02 </wgt>
<wgt id='128'> +4.6586574e+02 </wgt>
<wgt id='129'> +5.7254277e+02 </wgt>
<wgt id='130'> +5.0889610e+02 </wgt>
<wgt id='131'> +5.3962395e+02 </wgt>
<wgt id='132'> +5.0385916e+02 </wgt>
<wgt id='133'> +5.0496913e+02 </wgt>
<wgt id='134'> +4.7635766e+02 </wgt>
<wgt id='135'> +5.1740214e+02 </wgt>
<wgt id='136'> +4.8819588e+02 </wgt>
<wgt id='137'> +4.7693041e+02 </wgt>
<wgt id='138'> +4.6292372e+02 </wgt>
<wgt id='139'> +5.1618017e+02 </wgt>
<wgt id='140'> +5.3405981e+02 </wgt>
<wgt id='141'> +5.0540149e+02 </wgt>
<wgt id='142'> +5.0286967e+02 </wgt>
<wgt id='143'> +5.0269584e+02 </wgt>
<wgt id='144'> +5.0199085e+02 </wgt>
<wgt id='145'> +5.0590012e+02 </wgt>
</rwgt>
</event>
<event>
 4      1 +5.0481800e+02 1.74534900e+02 7.54677100e-03 1.17319900e-01
       21 -1    0    0  501  502 +0.0000000000e+00 +0.0000000000e+00 +3.3777050289e+02 3.3777050289e+02 0.0000000000e+00 0.0000e+00 -1.0000e+00
       21 -1    0    0  502  503 -0.0000000000e+00 -0.0000000000e+00 -1.0274404686e+02 1.0274404686e+02 0.0000000000e+00 0.0000e+00 -1.0000e+00
        6  1    1    2  501    0 +2.0568151013e+01 -1.0506832204e+01 +1.9451470641e+02 2.6133965135e+02 1.7300000000e+02 0.0000e+00 -1.0000e+00
       -6  1    1    2    0  503 -2.0568151013e+01 +1.0506832204e+01 +4.0511749624e+01 1.7917489840e+02 1.7300000000e+02 0.0000e+00 -1.0000e+00
<mgrwt>
<rscale>  2 0.17453493E+03</rscale>
<asrwt>0</asrwt>
<pdfrwt beam="1">  1       21 0.51964692E-01 0.17453493E+03</pdfrwt>
<pdfrwt beam="2">  1       21 0.15806777E-01 0.17453493E+03</pdfrwt>
<totfact> 0.12613335E+05</totfact>
</mgrwt>
<rwgt>
<wgt id='1'> +6.4290752e+02 </wgt>
<wgt id='2'> +7.3796517e+02 </wgt>
<wgt id='3'> +5.0481800e+02 </wgt>
<wgt id='4'> +6.4290752e+02 </wgt>
<wgt id='5'> +4.9383615e+02 </wgt>
<wgt id='6'> +6.2234789e+02 </wgt>
<wgt id='7'> +7.1849816e+02 </wgt>
<wgt id='8'> +4.7876409e+02 </wgt>
<wgt id='9'> +6.2234788e+02 </wgt>
<wgt id='10'> +4.6793908e+02 </wgt>
<wgt id='11'> +5.9022820e+02 </wgt>
<wgt id='12'> +6.8869363e+02 </wgt>
<wgt id='13'> +4.5288357e+02 </wgt>
<wgt id='14'> +5.9022820e+02 </wgt>
<wgt id='15'> +4.4260266e+02 </wgt>
<wgt id='16'> +5.2149497e+02 </wgt>
<wgt id='17'> +5.9056684e+02 </wgt>
<wgt id='18'> +4.2372014e+02 </wgt>
<wgt id='19'> +5.2149497e+02 </wgt>
<wgt id='20'> +4.1536075e+02 </wgt>
<wgt id='21'> +5.7498809e+02 </wgt>
<wgt id='22'> +4.0185173e+02 </wgt>
<wgt id='23'> +5.0481800e+02 </wgt>
<wgt id='24'> +3.9357898e+02 </wgt>
<wgt id='25'> +4.7876409e+02 </wgt>
<wgt id='26'> +5.5113660e+02 </wgt>
<wgt id='27'> +3.8012886e+02 </wgt>
<wgt id='28'> +4.7876409e+02 </wgt>
<wgt id='29'> +3.7226877e+02 </wgt>
<wgt id='30'> +4.3771799e+02 </wgt>
<wgt id='31'> +4.8692410e+02 </wgt>
<wgt id='32'> +3.6098140e+02 </wgt>
<wgt id='33'> +4.3771799e+02 </wgt>
<wgt id='34'> +3.5428247e+02 </wgt>
<wgt id='35'> +4.2372014e+02 </wgt>
<wgt id='36'> +4.7407938e+02 </wgt>
<wgt id='37'> +3.4235097e+02 </wgt>
<wgt id='38'> +4.2372014e+02 </wgt>
<wgt id='39'> +3.3570369e+02 </wgt>
<wgt id='40'> +4.0185174e+02 </wgt>
<wgt id='41'> +4.5441375e+02 </wgt>
<wgt id='42'> +3.2384453e+02 </wgt>
<wgt id='43'> +4.0185173e+02 </wgt>
<wgt id='44'> +3.1752711e+02 </wgt>
<wgt id='45'> +5.0481800e+02 </wgt>
<wgt id='46'> +5.0305070e+02 </wgt>
<wgt id='47'> +5.1976466e+02 </wgt>
<wgt id='48'> +5.0446897e+02 </wgt>
<wgt id='49'> +5.0372859e+02 </wgt>
<wgt id='50'> +5.7878801e+02 </wgt>
<wgt id='51'> +4.9523740e+02 </wgt>
<wgt id='52'> +5.0227376e+02 </wgt>
<wgt id='53'> +5.1088087e+02 </wgt>
<wgt id='54'> +5.0765358e+02 </wgt>
<wgt id='55'> +4.5598062e+02 </wgt>
<wgt id='56'> +4.7274039e+02 </wgt>
<wgt id='57'> +4.9348341e+02 </wgt>
<wgt id='58'> +5.1050817e+02 </wgt>
<wgt id='59'> +4.9787210e+02 </wgt>
<wgt id='60'> +4.8528609e+02 </wgt>
<wgt id='61'> +4.9319906e+02 </wgt>
<wgt id='62'> +4.9769186e+02 </wgt>
<wgt id='63'> +5.0521268e+02 </wgt>
<wgt id='64'> +5.0196424e+02 </wgt>
<wgt id='65'> +5.8841532e+02 </wgt>
<wgt id='66'> +4.9261572e+02 </wgt>
<wgt id='67'> +5.0919454e+02 </wgt>
<wgt id='68'> +5.3789282e+02 </wgt>
<wgt id='69'> +4.8895841e+02 </wgt>
<wgt id='70'> +4.9738998e+02 </wgt>
<wgt id='71'> +5.1439432e+02 </wgt>
<wgt id='72'> +4.9722664e+02 </wgt>
<wgt id='73'> +4.9961530e+02 </wgt>
<wgt id='74'> +5.1736197e+02 </wgt>
<wgt id='75'> +5.1432893e+02 </wgt>
<wgt id='76'> +4.9224942e+02 </wgt>
<wgt id='77'> +4.8636332e+02 </wgt>
<wgt id='78'> +5.0620544e+02 </wgt>
<wgt id='79'> +4.8449324e+02 </wgt>
<wgt id='80'> +5.0124572e+02 </wgt>
<wgt id='81'> +4.9697624e+02 </wgt>
<wgt id='82'> +5.1782293e+02 </wgt>
<wgt id='83'> +5.1231499e+02 </wgt>
<wgt id='84'> +5.4963828e+02 </wgt>
<wgt id='85'> +5.2882179e+02 </wgt>
<wgt id='86'> +4.9985553e+02 </wgt>
<wgt id='87'> +5.0427256e+02 </wgt>
<wgt id='88'> +5.1106451e+02 </wgt>
<wgt id='89'> +5.1544767e+02 </wgt>
<wgt id='90'> +5.1059163e+02 </wgt>
<wgt id='91'> +5.3557164e+02 </wgt>
<wgt id='92'> +4.7170123e+02 </wgt>
<wgt id='93'> +4.9530822e+02 </wgt>
<wgt id='94'> +5.0386967e+02 </wgt>
<wgt id='95'> +4.8755782e+02 </wgt>
<wgt id='96'> +5.3938791e+02 </wgt>
<wgt id='97'> +5.1312931e+02 </wgt>
<wgt id='98'> +4.8238926e+02 </wgt>
<wgt id='99'> +4.9140017e+02 </wgt>
<wgt id='100'> +5.0436573e+02 </wgt>
<wgt id='101'> +5.2621671e+02 </wgt>
<wgt id='102'> +4.8796601e+02 </wgt>
<wgt id='103'> +5.4461937e+02 </wgt>
<wgt id='104'> +5.0202411e+02 </wgt>
<wgt id='105'> +5.2644480e+02 </wgt>
<wgt id='106'> +4.7019257e+02 </wgt>
<wgt id='107'> +5.0231742e+02 </wgt>
<wgt id='108'> +4.5757777e+02 </wgt>
<wgt id='109'> +4.7808661e+02 </wgt>
<wgt id='110'> +5.0700134e+02 </wgt>
<wgt id='111'> +4.9360085e+02 </wgt>
<wgt id='112'> +4.8397986e+02 </wgt>
<wgt id='113'> +4.6711876e+02 </wgt>
<wgt id='114'> +5.0684316e+02 </wgt>
<wgt id='115'> +5.0630138e+02 </wgt>
<wgt id='116'> +5.0105099e+02 </wgt>
<wgt id='117'> +5.1123826e+02 </wgt>
<wgt id='118'> +5.1424282e+02 </wgt>
<wgt id='119'> +4.8785265e+02 </wgt>
<wgt id='120'> +5.0262931e+02 </wgt>
<wgt id='121'> +4.9343213e+02 </wgt>
<wgt id='122'> +4.9922531e+02 </wgt>
<wgt id='123'> +5.0911236e+02 </wgt>
<wgt id='124'> +5.3471392e+02 </wgt>
<wgt id='125'> +5.3647617e+02 </wgt>
<wgt id='126'> +5.2113875e+02 </wgt>
<wgt id='127'> +5.1782265e+02 </wgt>
<wgt id='128'> +4.7023658e+02 </wgt>
<wgt id='129'> +5.6822065e+02 </wgt>
<wgt id='130'> +5.0588102e+02 </wgt>
<wgt id='131'> +5.3899952e+02 </wgt>
<wgt id='132'> +5.0051577e+02 </wgt>
<wgt id='133'> +4.9965720e+02 </wgt>
<wgt id='134'> +4.7683392e+02 </wgt>
<wgt id='135'> +5.1724464e+02 </wgt>
<wgt id='136'> +4.8600700e+02 </wgt>
<wgt id='137'> +4.7487843e+02 </wgt>
<wgt id='138'> +4.5641600e+02 </wgt>
<wgt id='139'> +5.1341739e+02 </wgt>
<wgt id='140'> +5.3602048e+02 </wgt>
<wgt id='141'> +5.0312028e+02 </wgt>
<wgt id='142'> +5.0970734e+02 </wgt>
<wgt id='143'> +5.0114637e+02 </wgt>
<wgt id='144'> +5.0678997e+02 </wgt>
<wgt id='145'> +5.0579603e+02 </wgt>
</rwgt>
</event>
<event>
 4      1 +5.0481800e+02 2.19274100e+02 7.54677100e-03 1.13442500e-01
       21 -1    0    0  503  502 +0.0000000000e+00 +0.0000000000e+00 +2.3584159459e+02 2.3584159459e+02 0.0000000000e+00 0.0000e+00 1.0000e+00
       21 -1    0    0  501  503 -0.0000000000e+00 -0.0000000000e+00 -2.0425167988e+02 2.0425167988e+02 0.0000000000e+00 0.0000e+00 1.0000e+00
        6  1    1    2  501    0 -1.3364632053e+02 -1.7052572423e+01 +6.2882057118e+00 2.1936424218e+02 1.7300000000e+02 0.0000e+00 1.0000e+00
       -6  1    1    2    0  502 +1.3364632053e+02 +1.7052572423e+01 +2.5301709003e+01 2.2072903229e+02 1.7300000000e+02 0.0000e+00 1.0000e+00
<mgrwt>
<rscale>  2 0.21927410E+03</rscale>
<asrwt>0</asrwt>
<pdfrwt beam="1">  1       21 0.36283322E-01 0.21927410E+03</pdfrwt>
<pdfrwt beam="2">  1       21 0.31423335E-01 0.21927410E+03</pdfrwt>
<totfact> 0.70482978E+04</totfact>
</mgrwt>
<rwgt>
<wgt id='1'> +6.4597332e+02 </wgt>
<wgt id='2'> +5.0580884e+02 </wgt>
<wgt id='3'> +5.0481800e+02 </wgt>
<wgt id='4'> +6.4597333e+02 </wgt>
<wgt id='5'> +5.0465540e+02 </wgt>
<wgt id='6'> +6.1511645e+02 </wgt>
<wgt id='7'> +4.7492174e+02 </wgt>
<wgt id='8'> +4.7399351e+02 </wgt>
<wgt id='9'> +6.1511646e+02 </wgt>
<wgt id='10'> +4.7384118e+02 </wgt>
<wgt id='11'> +5.7755707e+02 </wgt>
<wgt id='12'> +4.4580917e+02 </wgt>
<wgt id='13'> +4.4493828e+02 </wgt>
<wgt id='14'> +5.7755708e+02 </wgt>
<wgt id='15'> +4.4479537e+02 </wgt>
<wgt id='16'> +5.3014183e+02 </wgt>
<wgt id='17'> +4.2699678e+02 </wgt>
<wgt id='18'> +4.2620543e+02 </wgt>
<wgt id='19'> +5.3014183e+02 </wgt>
<wgt id='20'> +4.2607555e+02 </wgt>
<wgt id='21'> +4.0092232e+02 </wgt>
<wgt id='22'> +4.0018107e+02 </wgt>
<wgt id='23'> +5.0481800e+02 </wgt>
<wgt id='24'> +4.0005941e+02 </wgt>
<wgt id='25'> +4.7399351e+02 </wgt>
<wgt id='26'> +3.7634589e+02 </wgt>
<wgt id='27'> +3.7565045e+02 </wgt>
<wgt id='28'> +4.7399351e+02 </wgt>
<wgt id='29'> +3.7553632e+02 </wgt>
<wgt id='30'> +4.4758571e+02 </wgt>
<wgt id='31'> +3.6523764e+02 </wgt>
<wgt id='32'> +3.6459700e+02 </wgt>
<wgt id='33'> +4.4758571e+02 </wgt>
<wgt id='34'> +3.6449185e+02 </wgt>
<wgt id='35'> +4.2620542e+02 </wgt>
<wgt id='36'> +3.4293449e+02 </wgt>
<wgt id='37'> +3.4233449e+02 </wgt>
<wgt id='38'> +4.2620543e+02 </wgt>
<wgt id='39'> +3.4223601e+02 </wgt>
<wgt id='40'> +4.0018106e+02 </wgt>
<wgt id='41'> +3.2191270e+02 </wgt>
<wgt id='42'> +3.2134980e+02 </wgt>
<wgt id='43'> +4.0018107e+02 </wgt>
<wgt id='44'> +3.2125741e+02 </wgt>
<wgt id='45'> +5.0481800e+02 </wgt>
<wgt id='46'> +5.0394495e+02 </wgt>
<wgt id='47'> +5.2284606e+02 </wgt>
<wgt id='48'> +5.0600612e+02 </wgt>
<wgt id='49'> +5.0404716e+02 </wgt>
<wgt id='50'> +5.8732543e+02 </wgt>
<wgt id='51'> +4.9519501e+02 </wgt>
<wgt id='52'> +5.0136765e+02 </wgt>
<wgt id='53'> +5.1211995e+02 </wgt>
<wgt id='54'> +5.0763014e+02 </wgt>
<wgt id='55'> +4.5002907e+02 </wgt>
<wgt id='56'> +4.7100373e+02 </wgt>
<wgt id='57'> +4.9040299e+02 </wgt>
<wgt id='58'> +5.0891078e+02 </wgt>
<wgt id='59'> +4.9518196e+02 </wgt>
<wgt id='60'> +4.8233017e+02 </wgt>
<wgt id='61'> +4.9542083e+02 </wgt>
<wgt id='62'> +4.9828289e+02 </wgt>
<wgt id='63'> +5.0532684e+02 </wgt>
<wgt id='64'> +5.0107059e+02 </wgt>
<wgt id='65'> +5.9736273e+02 </wgt>
<wgt id='66'> +4.9283587e+02 </wgt>
<wgt id='67'> +5.0945098e+02 </wgt>
<wgt id='68'> +5.3921935e+02 </wgt>
<wgt id='69'> +4.9192399e+02 </wgt>
<wgt id='70'> +4.9655646e+02 </wgt>
<wgt id='71'> +5.1436656e+02 </wgt>
<wgt id='72'> +4.9114064e+02 </wgt>
<wgt id='73'> +4.9861423e+02 </wgt>
<wgt id='74'> +5.1864861e+02 </wgt>
<wgt id='75'> +5.1609723e+02 </wgt>
<wgt id='76'> +4.8970193e+02 </wgt>
<wgt id='77'> +4.8545656e+02 </wgt>
<wgt id='78'> +5.0688587e+02 </wgt>
<wgt id='79'> +4.8325518e+02 </wgt>
<wgt id='80'> +5.0112622e+02 </wgt>
<wgt id='81'> +4.9578306e+02 </wgt>
<wgt id='82'> +5.1982017e+02 </wgt>
<wgt id='83'> +5.1551263e+02 </wgt>
<wgt id='84'> +5.5495406e+02 </wgt>
<wgt id='85'> +5.3208163e+02 </wgt>
<wgt id='86'> +5.0119890e+02 </wgt>
<wgt id='87'> +5.0438832e+02 </wgt>
<wgt id='88'> +5.1406729e+02 </wgt>
<wgt id='89'> +5.1632624e+02 </wgt>
<wgt id='90'> +5.0960216e+02 </wgt>
<wgt id='91'> +5.3813811e+02 </wgt>
<wgt id='92'> +4.6513007e+02 </wgt>
<wgt id='93'> +4.9563411e+02 </wgt>
<wgt id='94'> +5.0283819e+02 </wgt>
<wgt id='95'> +4.8358001e+02 </wgt>
<wgt id='96'> +5.4530437e+02 </wgt>
<wgt id='97'> +5.1350738e+02 </wgt>
<wgt id='98'> +4.8099934e+02 </wgt>
<wgt id='99'> +4.9072855e+02 </wgt>
<wgt id='100'> +5.0286919e+02 </wgt>
<wgt id='101'> +5.2760864e+02 </wgt>
<wgt id='102'> +4.8812966e+02 </wgt>
<wgt id='103'> +5.4756297e+02 </wgt>
<wgt id='104'> +5.0383396e+02 </wgt>
<wgt id='105'> +5.2492778e+02 </wgt>
<wgt id='106'> +4.6540474e+02 </wgt>
<wgt id='107'> +5.0026297e+02 </wgt>
<wgt id='108'> +4.5392743e+02 </wgt>
<wgt id='109'> +4.7479131e+02 </wgt>
<wgt id='110'> +5.0586803e+02 </wgt>
<wgt id='111'> +4.9198088e+02 </wgt>
<wgt id='112'> +4.8291108e+02 </wgt>
<wgt id='113'> +4.6390086e+02 </wgt>
<wgt id='114'> +5.0514132e+02 </wgt>
<wgt id='115'> +5.0894146e+02 </wgt>
<wgt id='116'> +5.0295550e+02 </wgt>
<wgt id='117'> +5.1281732e+02 </wgt>
<wgt id='118'> +5.1619315e+02 </wgt>
<wgt id='119'> +4.8518354e+02 </wgt>
<wgt id='120'> +5.0503497e+02 </wgt>
<wgt id='121'> +4.9039519e+02 </wgt>
<wgt id='122'> +4.9826931e+02 </wgt>
<wgt id='123'> +5.1156026e+02 </wgt>
<wgt id='124'> +5.3686421e+02 </wgt>
<wgt id='125'> +5.3815396e+02 </wgt>
<wgt id='126'> +5.2426639e+02 </wgt>
<wgt id='127'> +5.1942968e+02 </wgt>
<wgt id='128'> +4.7048926e+02 </wgt>
<wgt id='129'> +5.7098203e+02 </wgt>
<wgt id='130'> +5.0959035e+02 </wgt>
<wgt id='131'> +5.4120038e+02 </wgt>
<wgt id='132'> +4.9660620e+02 </wgt>
<wgt id='133'> +4.9997702e+02 </wgt>
<wgt id='134'> +4.7386910e+02 </wgt>
<wgt id='135'> +5.1786696e+02 </wgt>
<wgt id='136'> +4.8134056e+02 </wgt>
<wgt id='137'> +4.7527486e+02 </wgt>
<wgt id='138'> +4.5861871e+02 </wgt>
<wgt id='139'> +5.1369515e+02 </wgt>
<wgt id='140'> +5.3776178e+02 </wgt>
<wgt id='141'> +5.0375876e+02 </wgt>
<wgt id='142'> +5.1050891e+02 </wgt>
<wgt id='143'> +4.9893868e+02 </wgt>
<wgt id='144'> +5.0492956e+02 </wgt>
<wgt id='145'> +5.0598982e+02 </wgt>
</rwgt>
</event>
<event>
 4      1 +5.0481800e+02 2.00248700e+02 7.54677100e-03 1.14952900e-01
       21 -1    0    0  501  502 +0.0000000000e+00 +0.0000000000e+00 +2.6060276875e+02 2.6060276875e+02 0.0000000000e+00 0.0000e+00 -1.0000e+00
       21 -1    0    0  502  503 -0.0000000000e+00 -0.0000000000e+00 -4.7835243291e+02 4.7835243291e+02 0.0000000000e+00 0.0000e+00 -1.0000e+00
        6  1    1    2  501    0 +8.4292749485e+01 +5.5365054827e+01 +1.9542951228e+02 2.7980752524e+02 1.7300000000e+02 0.0000e+00 -1.0000e+00
       -6  1    1    2    0  503 -8.4292749485e+01 -5.5365054827e+01 -4.1317917645e+02 4.5914767642e+02 1.7300000000e+02 0.0000e+00 -1.0000e+00
<mgrwt>
<rscale>  2 0.20024874E+03</rscale>
<asrwt>0</asrwt>
<pdfrwt beam="1">  1       21 0.40092734E-01 0.20024874E+03</pdfrwt>
<pdfrwt beam="2">  1       21 0.73592681E-01 0.20024874E+03</pdfrwt>
<totfact> 0.98909574E+03</totfact>
</mgrwt>
<rwgt>
<wgt id='1'> +6.7155582e+02 </wgt>
<wgt id='2'> +6.2509949e+02 </wgt>
<wgt id='3'> +5.0481800e+02 </wgt>
<wgt id='4'> +6.7155582e+02 </wgt>
<wgt id='5'> +4.0534771e+02 </wgt>
<wgt id='6'> +6.1824846e+02 </wgt>
<wgt id='7'> +5.7298546e+02 </wgt>
<wgt id='8'> +4.5880597e+02 </wgt>
<wgt id='9'> +6.1824846e+02 </wgt>
<wgt id='10'> +3.6928064e+02 </wgt>
<wgt id='11'> +5.6189772e+02 </wgt>
<wgt id='12'> +5.2116658e+02 </wgt>
<wgt id='13'> +4.1820476e+02 </wgt>
<wgt id='14'> +5.6189772e+02 </wgt>
<wgt id='15'> +3.3744041e+02 </wgt>
<wgt id='16'> +5.4834503e+02 </wgt>
<wgt id='17'> +5.1518021e+02 </wgt>
<wgt id='18'> +4.2542694e+02 </wgt>
<wgt id='19'> +5.4834503e+02 </wgt>
<wgt id='20'> +3.4540215e+02 </wgt>
<wgt id='21'> +4.7223006e+02 </wgt>
<wgt id='22'> +3.8665107e+02 </wgt>
<wgt id='23'> +5.0481800e+02 </wgt>
<wgt id='24'> +3.1466892e+02 </wgt>
<wgt id='25'> +4.5880597e+02 </wgt>
<wgt id='26'> +4.2952316e+02 </wgt>
<wgt id='27'> +3.5243507e+02 </wgt>
<wgt id='28'> +4.5880597e+02 </wgt>
<wgt id='29'> +2.8753744e+02 </wgt>
<wgt id='30'> +4.6210861e+02 </wgt>
<wgt id='31'> +4.3562170e+02 </wgt>
<wgt id='32'> +3.6334363e+02 </wgt>
<wgt id='33'> +4.6210861e+02 </wgt>
<wgt id='34'> +2.9783288e+02 </wgt>
<wgt id='35'> +4.2542694e+02 </wgt>
<wgt id='36'> +3.9930428e+02 </wgt>
<wgt id='37'> +3.3022639e+02 </wgt>
<wgt id='38'> +4.2542694e+02 </wgt>
<wgt id='39'> +2.7133227e+02 </wgt>
<wgt id='40'> +3.8665107e+02 </wgt>
<wgt id='41'> +3.6319254e+02 </wgt>
<wgt id='42'> +3.0100360e+02 </wgt>
<wgt id='43'> +3.8665107e+02 </wgt>
<wgt id='44'> +2.4793737e+02 </wgt>
<wgt id='45'> +5.0481800e+02 </wgt>
<wgt id='46'> +5.1748850e+02 </wgt>
<wgt id='47'> +5.2875890e+02 </wgt>
<wgt id='48'> +5.1346947e+02 </wgt>
<wgt id='49'> +5.0119760e+02 </wgt>
<wgt id='50'> +6.2464949e+02 </wgt>
<wgt id='51'> +4.9410707e+02 </wgt>
<wgt id='52'> +5.0497613e+02 </wgt>
<wgt id='53'> +5.0033949e+02 </wgt>
<wgt id='54'> +5.0940033e+02 </wgt>
<wgt id='55'> +4.5376177e+02 </wgt>
<wgt id='56'> +4.5506161e+02 </wgt>
<wgt id='57'> +4.9464090e+02 </wgt>
<wgt id='58'> +4.9550715e+02 </wgt>
<wgt id='59'> +5.1446961e+02 </wgt>
<wgt id='60'> +4.9775259e+02 </wgt>
<wgt id='61'> +4.5638630e+02 </wgt>
<wgt id='62'> +4.9912786e+02 </wgt>
<wgt id='63'> +5.0556447e+02 </wgt>
<wgt id='64'> +4.8976247e+02 </wgt>
<wgt id='65'> +5.8971571e+02 </wgt>
<wgt id='66'> +4.9497781e+02 </wgt>
<wgt id='67'> +5.0890271e+02 </wgt>
<wgt id='68'> +5.5856140e+02 </wgt>
<wgt id='69'> +5.0748714e+02 </wgt>
<wgt id='70'> +4.9436194e+02 </wgt>
<wgt id='71'> +5.1297418e+02 </wgt>
<wgt id='72'> +4.7131303e+02 </wgt>
<wgt id='73'> +4.9069698e+02 </wgt>
<wgt id='74'> +5.3512870e+02 </wgt>
<wgt id='75'> +5.1946692e+02 </wgt>
<wgt id='76'> +4.8898992e+02 </wgt>
<wgt id='77'> +4.9386532e+02 </wgt>
<wgt id='78'> +4.8836258e+02 </wgt>
<wgt id='79'> +4.9312969e+02 </wgt>
<wgt id='80'> +4.9351021e+02 </wgt>
<wgt id='81'> +4.9095473e+02 </wgt>
<wgt id='82'> +5.0737069e+02 </wgt>
<wgt id='83'> +5.2000534e+02 </wgt>
<wgt id='84'> +5.5900823e+02 </wgt>
<wgt id='85'> +5.2813749e+02 </wgt>
<wgt id='86'> +5.0918122e+02 </wgt>
<wgt id='87'> +5.0941923e+02 </wgt>
<wgt id='88'> +5.1506717e+02 </wgt>
<wgt id='89'> +5.2071248e+02 </wgt>
<wgt id='90'> +5.1549324e+02 </wgt>
<wgt id='91'> +5.3013203e+02 </wgt>
<wgt id='92'> +4.4408998e+02 </wgt>
<wgt id='93'> +5.0301871e+02 </wgt>
<wgt id='94'> +4.9189771e+02 </wgt>
<wgt id='95'> +4.8282608e+02 </wgt>
<wgt id='96'> +5.5933352e+02 </wgt>
<wgt id='97'> +5.0352257e+02 </wgt>
<wgt id='98'> +4.8582555e+02 </wgt>
<wgt id='99'> +4.8233333e+02 </wgt>
<wgt id='100'> +4.7603322e+02 </wgt>
<wgt id='101'> +5.5917864e+02 </wgt>
<wgt id='102'> +5.1455435e+02 </wgt>
<wgt id='103'> +5.5747754e+02 </wgt>
<wgt id='104'> +5.1085970e+02 </wgt>
<wgt id='105'> +5.1768406e+02 </wgt>
<wgt id='106'> +4.4591043e+02 </wgt>
<wgt id='107'> +4.7744983e+02 </wgt>
<wgt id='108'> +4.3286139e+02 </wgt>
<wgt id='109'> +4.6362938e+02 </wgt>
<wgt id='110'> +5.0087032e+02 </wgt>
<wgt id='111'> +4.8518846e+02 </wgt>
<wgt id='112'> +4.7056019e+02 </wgt>
<wgt id='113'> +4.5523761e+02 </wgt>
<wgt id='114'> +4.8519690e+02 </wgt>
<wgt id='115'> +4.8189101e+02 </wgt>
<wgt id='116'> +5.2419387e+02 </wgt>
<wgt id='117'> +5.0265371e+02 </wgt>
<wgt id='118'> +5.3468305e+02 </wgt>
<wgt id='119'> +4.8149015e+02 </wgt>
<wgt id='120'> +4.8992891e+02 </wgt>
<wgt id='121'> +4.8631591e+02 </wgt>
<wgt id='122'> +4.9651975e+02 </wgt>
<wgt id='123'> +5.1454089e+02 </wgt>
<wgt id='124'> +5.6309208e+02 </wgt>
<wgt id='125'> +5.6365296e+02 </wgt>
<wgt id='126'> +5.3014757e+02 </wgt>
<wgt id='127'> +5.2511642e+02 </wgt>
<wgt id='128'> +4.5572953e+02 </wgt>
<wgt id='129'> +5.7825262e+02 </wgt>
<wgt id='130'> +5.0901277e+02 </wgt>
<wgt id='131'> +5.3729646e+02 </wgt>
<wgt id='132'> +5.1783899e+02 </wgt>
<wgt id='133'> +5.1674905e+02 </wgt>
<wgt id='134'> +4.7989908e+02 </wgt>
<wgt id='135'> +5.1670424e+02 </wgt>
<wgt id='136'> +5.0132472e+02 </wgt>
<wgt id='137'> +4.8069095e+02 </wgt>
<wgt id='138'> +4.7370318e+02 </wgt>
<wgt id='139'> +5.2213442e+02 </wgt>
<wgt id='140'> +5.2730215e+02 </wgt>
<wgt id='141'> +5.0987380e+02 </wgt>
<wgt id='142'> +4.8510660e+02 </wgt>
<wgt id='143'> +5.0957198e+02 </wgt>
<wgt id='144'> +4.9404031e+02 </wgt>
<wgt id='145'> +5.0520697e+02 </wgt>
</rwgt>
</event>
<event>
 4      1 +5.0481800e+02 2.34261000e+02 7.54677100e-03 1.12367600e-01
       21 -1    0    0  501  502 +0.0000000000e+00 +0.0000000000e+00 +5.1260050313e+02 5.1260050313e+02 0.0000000000e+00 0.0000e+00 -1.0000e+00
       21 -1    0    0  502  503 -0.0000000000e+00 -0.0000000000e+00 -1.0887704598e+02 1.0887704598e+02 0.0000000000e+00 0.0000e+00 -1.0000e+00
        6  1    1    2  501    0 +1.3935104340e+02 -7.4367215994e+01 +2.4202229922e+02 3.3682783351e+02 1.7300000000e+02 0.0000e+00 -1.0000e+00
       -6  1    1    2    0  503 -1.3935104340e+02 +7.4367215994e+01 +1.6170115794e+02 2.8464971560e+02 1.7300000000e+02 0.0000e+00 -1.0000e+00
<mgrwt>
<rscale>  2 0.23426096E+03</rscale>
<asrwt>0</asrwt>
<pdfrwt beam="1">  1       21 0.78861615E-01 0.23426096E+03</pdfrwt>
<pdfrwt beam="2">  1       21 0.16750315E-01 0.23426096E+03</pdfrwt>
<totfact> 0.44633476E+04</totfact>
</mgrwt>
<rwgt>
<wgt id='1'> +6.5109720e+02 </wgt>
<wgt id='2'> +5.4270826e+02 </wgt>
<wgt id='3'> +5.0481800e+02 </wgt>
<wgt id='4'> +6.5109720e+02 </wgt>
<wgt id='5'> +5.0330710e+02 </wgt>
<wgt id='6'> +6.1292205e+02 </wgt>
<wgt id='7'> +5.0528571e+02 </wgt>
<wgt id='8'> +4.6995856e+02 </wgt>
<wgt id='9'> +6.1292206e+02 </wgt>
<wgt id='10'> +4.6855187e+02 </wgt>
<wgt id='11'> +5.7059765e+02 </wgt>
<wgt id='12'> +4.7049981e+02 </wgt>
<wgt id='13'> +4.3769636e+02 </wgt>
<wgt id='14'> +5.7059766e+02 </wgt>
<wgt id='15'> +4.3639060e+02 </wgt>
<wgt id='16'> +5.3626001e+02 </wgt>
<wgt id='17'> +4.5683020e+02 </wgt>
<wgt id='18'> +4.2675134e+02 </wgt>
<wgt id='19'> +5.3626001e+02 </wgt>
<wgt id='20'> +4.2554747e+02 </wgt>
<wgt id='21'> +4.2532939e+02 </wgt>
<wgt id='22'> +3.9728268e+02 </wgt>
<wgt id='23'> +5.0481800e+02 </wgt>
<wgt id='24'> +3.9616183e+02 </wgt>
<wgt id='25'> +4.6995856e+02 </wgt>
<wgt id='26'> +3.9604800e+02 </wgt>
<wgt id='27'> +3.7000961e+02 </wgt>
<wgt id='28'> +4.6995856e+02 </wgt>
<wgt id='29'> +3.6896939e+02 </wgt>
<wgt id='30'> +4.5333106e+02 </wgt>
<wgt id='31'> +3.8984899e+02 </wgt>
<wgt id='32'> +3.6548443e+02 </wgt>
<wgt id='33'> +4.5333106e+02 </wgt>
<wgt id='34'> +3.6450661e+02 </wgt>
<wgt id='35'> +4.2675134e+02 </wgt>
<wgt id='36'> +3.6296688e+02 </wgt>
<wgt id='37'> +3.4024646e+02 </wgt>
<wgt id='38'> +4.2675134e+02 </wgt>
<wgt id='39'> +3.3933607e+02 </wgt>
<wgt id='40'> +3.9728268e+02 </wgt>
<wgt id='41'> +3.3797877e+02 </wgt>
<wgt id='42'> +3.1688887e+02 </wgt>
<wgt id='43'> +3.9728268e+02 </wgt>
<wgt id='44'> +3.1604414e+02 </wgt>
<wgt id='45'> +5.0481800e+02 </wgt>
<wgt id='46'> +5.1165840e+02 </wgt>
<wgt id='47'> +5.2204354e+02 </wgt>
<wgt id='48'> +5.0849936e+02 </wgt>
<wgt id='49'> +4.9978466e+02 </wgt>
<wgt id='50'> +5.9675746e+02 </wgt>
<wgt id='51'> +4.9382790e+02 </wgt>
<wgt id='52'> +5.0321382e+02 </wgt>
<wgt id='53'> +5.0344799e+02 </wgt>
<wgt id='54'> +5.1038167e+02 </wgt>
<wgt id='55'> +4.6647355e+02 </wgt>
<wgt id='56'> +4.6456023e+02 </wgt>
<wgt id='57'> +4.9988300e+02 </wgt>
<wgt id='58'> +4.9966253e+02 </wgt>
<wgt id='59'> +5.1256881e+02 </wgt>
<wgt id='60'> +4.9592345e+02 </wgt>
<wgt id='61'> +4.6149105e+02 </wgt>
<wgt id='62'> +4.9683261e+02 </wgt>
<wgt id='63'> +5.0617029e+02 </wgt>
<wgt id='64'> +4.9629104e+02 </wgt>
<wgt id='65'> +5.7502331e+02 </wgt>
<wgt id='66'> +4.9520593e+02 </wgt>
<wgt id='67'> +5.0853019e+02 </wgt>
<wgt id='68'> +5.5048785e+02 </wgt>
<wgt id='69'> +5.0057520e+02 </wgt>
<wgt id='70'> +4.9775358e+02 </wgt>
<wgt id='71'> +5.1174118e+02 </wgt>
<wgt id='72'> +4.8630092e+02 </wgt>
<wgt id='73'> +4.9273803e+02 </wgt>
<wgt id='74'> +5.2832948e+02 </wgt>
<wgt id='75'> +5.1664144e+02 </wgt>
<wgt id='76'> +4.9477283e+02 </wgt>
<wgt id='77'> +4.9185419e+02 </wgt>
<wgt id='78'> +4.9182916e+02 </wgt>
<wgt id='79'> +4.9336305e+02 </wgt>
<wgt id='80'> +4.9468347e+02 </wgt>
<wgt id='81'> +4.9546108e+02 </wgt>
<wgt id='82'> +5.0628561e+02 </wgt>
<wgt id='83'> +5.1331234e+02 </wgt>
<wgt id='84'> +5.4733402e+02 </wgt>
<wgt id='85'> +5.2112083e+02 </wgt>
<wgt id='86'> +5.0544652e+02 </wgt>
<wgt id='87'> +5.0695468e+02 </wgt>
<wgt id='88'> +5.1010766e+02 </wgt>
<wgt id='89'> +5.1346293e+02 </wgt>
<wgt id='90'> +5.1281236e+02 </wgt>
<wgt id='91'> +5.2516613e+02 </wgt>
<wgt id='92'> +4.6211081e+02 </wgt>
<wgt id='93'> +5.0023870e+02 </wgt>
<wgt id='94'> +4.9552104e+02 </wgt>
<wgt id='95'> +4.9191043e+02 </wgt>
<wgt id='96'> +5.4329132e+02 </wgt>
<wgt id='97'> +5.0456897e+02 </wgt>
<wgt id='98'> +4.8907001e+02 </wgt>
<wgt id='99'> +4.8349203e+02 </wgt>
<wgt id='100'> +4.8277530e+02 </wgt>
<wgt id='101'> +5.4613625e+02 </wgt>
<wgt id='102'> +5.0781051e+02 </wgt>
<wgt id='103'> +5.4509523e+02 </wgt>
<wgt id='104'> +5.0773506e+02 </wgt>
<wgt id='105'> +5.2172811e+02 </wgt>
<wgt id='106'> +4.6209759e+02 </wgt>
<wgt id='107'> +4.8794440e+02 </wgt>
<wgt id='108'> +4.4856920e+02 </wgt>
<wgt id='109'> +4.7462878e+02 </wgt>
<wgt id='110'> +5.0207773e+02 </wgt>
<wgt id='111'> +4.9110173e+02 </wgt>
<wgt id='112'> +4.7941937e+02 </wgt>
<wgt id='113'> +4.6653583e+02 </wgt>
<wgt id='114'> +4.9702768e+02 </wgt>
<wgt id='115'> +4.8942297e+02 </wgt>
<wgt id='116'> +5.1545731e+02 </wgt>
<wgt id='117'> +5.0414082e+02 </wgt>
<wgt id='118'> +5.2470771e+02 </wgt>
<wgt id='119'> +4.8955513e+02 </wgt>
<wgt id='120'> +4.9589334e+02 </wgt>
<wgt id='121'> +4.9282732e+02 </wgt>
<wgt id='122'> +4.9901744e+02 </wgt>
<wgt id='123'> +5.0964057e+02 </wgt>
<wgt id='124'> +5.5020404e+02 </wgt>
<wgt id='125'> +5.5361989e+02 </wgt>
<wgt id='126'> +5.2212838e+02 </wgt>
<wgt id='127'> +5.1864609e+02 </wgt>
<wgt id='128'> +4.6347236e+02 </wgt>
<wgt id='129'> +5.6707652e+02 </wgt>
<wgt id='130'> +5.0347538e+02 </wgt>
<wgt id='131'> +5.3129727e+02 </wgt>
<wgt id='132'> +5.1691508e+02 </wgt>
<wgt id='133'> +5.1185107e+02 </wgt>
<wgt id='134'> +4.8469284e+02 </wgt>
<wgt id='135'> +5.1394897e+02 </wgt>
<wgt id='136'> +5.0516742e+02 </wgt>
<wgt id='137'> +4.8137707e+02 </wgt>
<wgt id='138'> +4.6966490e+02 </wgt>
<wgt id='139'> +5.1770067e+02 </wgt>
<wgt id='140'> +5.2601115e+02 </wgt>
<wgt id='141'> +5.0954575e+02 </wgt>
<wgt id='142'> +4.8718467e+02 </wgt>
<wgt id='143'> +5.0894995e+02 </wgt>
<wgt id='144'> +4.9824446e+02 </wgt>
<wgt id='145'> +5.0368746e+02 </wgt>
</rwgt>
</event>
<event>
 4      1 +5.0481800e+02 1.76891200e+02 7.54677100e-03 1.17084600e-01
       21 -1    0    0  503  502 +0.0000000000e+00 +0.0000000000e+00 +4.0388976382e+02 4.0388976382e+02 0.0000000000e+00 0.0000e+00 -1.0000e+00
       21 -1    0    0  501  503 -0.0000000000e+00 -0.0000000000e+00 -8.1682342872e+01 8.1682342872e+01 0.0000000000e+00 0.0000e+00 -1.0000e+00
        6  1    1    2  501    0 +3.1335396337e+01 -1.9483142930e+01 +1.0598825466e+02 2.0621350598e+02 1.7300000000e+02 0.0000e+00 1.0000e+00
       -6  1    1    2    0  502 -3.1335396337e+01 +1.9483142930e+01 +2.1621916630e+02 2.7935860072e+02 1.7300000000e+02 0.0000e+00 1.0000e+00
<mgrwt>
<rscale>  2 0.17689121E+03</rscale>
<asrwt>0</asrwt>
<pdfrwt beam="1">  1       21 0.62136886E-01 0.17689121E+03</pdfrwt>
<pdfrwt beam="2">  1       21 0.12566514E-01 0.17689121E+03</pdfrwt>
<totfact> 0.13055043E+05</totfact>
</mgrwt>
<rwgt>
<wgt id='1'> +6.4272090e+02 </wgt>
<wgt id='2'> +7.5253614e+02 </wgt>
<wgt id='3'> +5.0481800e+02 </wgt>
<wgt id='4'> +6.4272090e+02 </wgt>
<wgt id='5'> +5.0032837e+02 </wgt>
<wgt id='6'> +6.2195862e+02 </wgt>
<wgt id='7'> +7.3319766e+02 </wgt>
<wgt id='8'> +4.7861564e+02 </wgt>
<wgt id='9'> +6.2195862e+02 </wgt>
<wgt id='10'> +4.7418441e+02 </wgt>
<wgt id='11'> +5.8967612e+02 </wgt>
<wgt id='12'> +7.0368081e+02 </wgt>
<wgt id='13'> +4.5265907e+02 </wgt>
<wgt id='14'> +5.8967613e+02 </wgt>
<wgt id='15'> +4.4845030e+02 </wgt>
<wgt id='16'> +5.2166988e+02 </wgt>
<wgt id='17'> +6.0134616e+02 </wgt>
<wgt id='18'> +4.2391060e+02 </wgt>
<wgt id='19'> +5.2166988e+02 </wgt>
<wgt id='20'> +4.2049744e+02 </wgt>
<wgt id='21'> +5.8589292e+02 </wgt>
<wgt id='22'> +4.0190770e+02 </wgt>
<wgt id='23'> +5.0481800e+02 </wgt>
<wgt id='24'> +3.9852494e+02 </wgt>
<wgt id='25'> +4.7861564e+02 </wgt>
<wgt id='26'> +5.6230622e+02 </wgt>
<wgt id='27'> +3.8011121e+02 </wgt>
<wgt id='28'> +4.7861564e+02 </wgt>
<wgt id='29'> +3.7689688e+02 </wgt>
<wgt id='30'> +4.3806162e+02 </wgt>
<wgt id='31'> +4.9475895e+02 </wgt>
<wgt id='32'> +3.6123322e+02 </wgt>
<wgt id='33'> +4.3806162e+02 </wgt>
<wgt id='34'> +3.5849844e+02 </wgt>
<wgt id='35'> +4.2391060e+02 </wgt>
<wgt id='36'> +4.8204477e+02 </wgt>
<wgt id='37'> +3.4248356e+02 </wgt>
<wgt id='38'> +4.2391060e+02 </wgt>
<wgt id='39'> +3.3976560e+02 </wgt>
<wgt id='40'> +4.0190770e+02 </wgt>
<wgt id='41'> +4.6263875e+02 </wgt>
<wgt id='42'> +3.2390979e+02 </wgt>
<wgt id='43'> +4.0190770e+02 </wgt>
<wgt id='44'> +3.2132643e+02 </wgt>
<wgt id='45'> +5.0481800e+02 </wgt>
<wgt id='46'> +5.0532469e+02 </wgt>
<wgt id='47'> +5.1914984e+02 </wgt>
<wgt id='48'> +5.0520558e+02 </wgt>
<wgt id='49'> +5.0294022e+02 </wgt>
<wgt id='50'> +5.8008152e+02 </wgt>
<wgt id='51'> +4.9514862e+02 </wgt>
<wgt id='52'> +5.0322582e+02 </wgt>
<wgt id='53'> +5.0789907e+02 </wgt>
<wgt id='54'> +5.0809574e+02 </wgt>
<wgt id='55'> +4.6072590e+02 </wgt>
<wgt id='56'> +4.7123660e+02 </wgt>
<wgt id='57'> +4.9601276e+02 </wgt>
<wgt id='58'> +5.0843161e+02 </wgt>
<wgt id='59'> +5.0298584e+02 </wgt>
<wgt id='60'> +4.9020659e+02 </wgt>
<wgt id='61'> +4.8424015e+02 </wgt>
<wgt id='62'> +4.9764487e+02 </wgt>
<wgt id='63'> +5.0539642e+02 </wgt>
<wgt id='64'> +5.0042497e+02 </wgt>
<wgt id='65'> +5.8054807e+02 </wgt>
<wgt id='66'> +4.9332873e+02 </wgt>
<wgt id='67'> +5.0892191e+02 </wgt>
<wgt id='68'> +5.4056178e+02 </wgt>
<wgt id='69'> +4.9096217e+02 </wgt>
<wgt id='70'> +4.9768800e+02 </wgt>
<wgt id='71'> +5.1374135e+02 </wgt>
<wgt id='72'> +4.9607218e+02 </wgt>
<wgt id='73'> +4.9853476e+02 </wgt>
<wgt id='74'> +5.1981442e+02 </wgt>
<wgt id='75'> +5.1412933e+02 </wgt>
<wgt id='76'> +4.9358355e+02 </wgt>
<wgt id='77'> +4.8875361e+02 </wgt>
<wgt id='78'> +5.0207524e+02 </wgt>
<wgt id='79'> +4.8763564e+02 </wgt>
<wgt id='80'> +4.9979708e+02 </wgt>
<wgt id='81'> +4.9687665e+02 </wgt>
<wgt id='82'> +5.1407996e+02 </wgt>
<wgt id='83'> +5.1140555e+02 </wgt>
<wgt id='84'> +5.4686662e+02 </wgt>
<wgt id='85'> +5.2587444e+02 </wgt>
<wgt id='86'> +5.0094071e+02 </wgt>
<wgt id='87'> +5.0517593e+02 </wgt>
<wgt id='88'> +5.0966495e+02 </wgt>
<wgt id='89'> +5.1533948e+02 </wgt>
<wgt id='90'> +5.1190042e+02 </wgt>
<wgt id='91'> +5.3202517e+02 </wgt>
<wgt id='92'> +4.7114179e+02 </wgt>
<wgt id='93'> +4.9684746e+02 </wgt>
<wgt id='94'> +5.0207189e+02 </wgt>
<wgt id='95'> +4.8968879e+02 </wgt>
<wgt id='96'> +5.3855064e+02 </wgt>
<wgt id='97'> +5.1065882e+02 </wgt>
<wgt id='98'> +4.8448187e+02 </wgt>
<wgt id='99'> +4.9016122e+02 </wgt>
<wgt id='100'> +4.9945723e+02 </wgt>
<wgt id='101'> +5.3118485e+02 </wgt>
<wgt id='102'> +4.9346100e+02 </wgt>
<wgt id='103'> +5.4404477e+02 </wgt>
<wgt id='104'> +5.0265055e+02 </wgt>
<wgt id='105'> +5.2526061e+02 </wgt>
<wgt id='106'> +4.6931731e+02 </wgt>
<wgt id='107'> +4.9878050e+02 </wgt>
<wgt id='108'> +4.5615808e+02 </wgt>
<wgt id='109'> +4.7805200e+02 </wgt>
<wgt id='110'> +5.0640486e+02 </wgt>
<wgt id='111'> +4.9319560e+02 </wgt>
<wgt id='112'> +4.8274447e+02 </wgt>
<wgt id='113'> +4.6788904e+02 </wgt>
<wgt id='114'> +5.0374982e+02 </wgt>
<wgt id='115'> +4.9977227e+02 </wgt>
<wgt id='116'> +5.0438436e+02 </wgt>
<wgt id='117'> +5.0838530e+02 </wgt>
<wgt id='118'> +5.1668942e+02 </wgt>
<wgt id='119'> +4.8892093e+02 </wgt>
<wgt id='120'> +4.9901203e+02 </wgt>
<wgt id='121'> +4.9425997e+02 </wgt>
<wgt id='122'> +4.9944067e+02 </wgt>
<wgt id='123'> +5.0842268e+02 </wgt>
<wgt id='124'> +5.3809681e+02 </wgt>
<wgt id='125'> +5.4015760e+02 </wgt>
<wgt id='126'> +5.2056237e+02 </wgt>
<wgt id='127'> +5.1778728e+02 </wgt>
<wgt id='128'> +4.6798590e+02 </wgt>
<wgt id='129'> +5.6676955e+02 </wgt>
<wgt id='130'> +5.0392283e+02 </wgt>
<wgt id='131'> +5.3629553e+02 </wgt>
<wgt id='132'> +5.0653280e+02 </wgt>
<wgt id='133'> +5.0297111e+02 </wgt>
<wgt id='134'> +4.8013381e+02 </wgt>
<wgt id='135'> +5.1627997e+02 </wgt>
<wgt id='136'> +4.9259816e+02 </wgt>
<wgt id='137'> +4.7647396e+02 </wgt>
<wgt id='138'> +4.5942720e+02 </wgt>
<wgt id='139'> +5.1471255e+02 </wgt>
<wgt id='140'> +5.3244960e+02 </wgt>
<wgt id='141'> +5.0423886e+02 </wgt>
<wgt id='142'> +5.0392876e+02 </wgt>
<wgt id='143'> +5.0436095e+02 </wgt>
<wgt id='144'> +5.0536020e+02 </wgt>
<wgt id='145'> +5.0528908e+02 </wgt>
</rwgt>
</event>
<event>
 4      1 +5.0481800e+02 2.03088300e+02 7.54677100e-03 1.14715900e-01
       21 -1    0    0  503  502 +0.0000000000e+00 +0.0000000000e+00 +3.2568534882e+02 3.2568534882e+02 0.0000000000e+00 0.0000e+00 -1.0000e+00
       21 -1    0    0  501  503 -0.0000000000e+00 -0.0000000000e+00 -2.0940211598e+02 2.0940211598e+02 0.0000000000e+00 0.0000e+00 1.0000e+00
        6  1    1    2  501    0 +9.7918069222e+01 +4.1568103675e+01 -1.1005588276e+02 2.3099167269e+02 1.7300000000e+02 0.0000e+00 1.0000e+00
       -6  1    1    2    0  502 -9.7918069222e+01 -4.1568103675e+01 +2.2633911560e+02 3.0409579210e+02 1.7300000000e+02 0.0000e+00 -1.0000e+00
<mgrwt>
<rscale>  2 0.20308829E+03</rscale>
<asrwt>0</asrwt>
<pdfrwt beam="1">  1       21 0.50105439E-01 0.20308829E+03</pdfrwt>
<pdfrwt beam="2">  1       21 0.32215710E-01 0.20308829E+03</pdfrwt>
<totfact> 0.34969709E+04</totfact>
</mgrwt>
<rwgt>
<wgt id='1'> +6.5561256e+02 </wgt>
<wgt id='2'> +5.7203367e+02 </wgt>
<wgt id='3'> +5.0481800e+02 </wgt>
<wgt id='4'> +6.5561255e+02 </wgt>
<wgt id='5'> +4.6103716e+02 </wgt>
<wgt id='6'> +6.1777568e+02 </wgt>
<wgt id='7'> +5.3351489e+02 </wgt>
<wgt id='8'> +4.6856236e+02 </wgt>
<wgt id='9'> +6.1777567e+02 </wgt>
<wgt id='10'> +4.2806765e+02 </wgt>
<wgt id='11'> +5.7340751e+02 </wgt>
<wgt id='12'> +4.9541329e+02 </wgt>
<wgt id='13'> +4.3529523e+02 </wgt>
<wgt id='14'> +5.7340751e+02 </wgt>
<wgt id='15'> +3.9784685e+02 </wgt>
<wgt id='16'> +5.3573657e+02 </wgt>
<wgt id='17'> +4.7633083e+02 </wgt>
<wgt id='18'> +4.2556205e+02 </wgt>
<wgt id='19'> +5.3573656e+02 </wgt>
<wgt id='20'> +3.9059125e+02 </wgt>
<wgt id='21'> +4.4425635e+02 </wgt>
<wgt id='22'> +3.9499852e+02 </wgt>
<wgt id='23'> +5.0481800e+02 </wgt>
<wgt id='24'> +3.6265944e+02 </wgt>
<wgt id='25'> +4.6856237e+02 </wgt>
<wgt id='26'> +4.1252925e+02 </wgt>
<wgt id='27'> +3.6695429e+02 </wgt>
<wgt id='28'> +4.6856236e+02 </wgt>
<wgt id='29'> +3.3705634e+02 </wgt>
<wgt id='30'> +4.5162644e+02 </wgt>
<wgt id='31'> +4.0437712e+02 </wgt>
<wgt id='32'> +3.6355134e+02 </wgt>
<wgt id='33'> +4.5162643e+02 </wgt>
<wgt id='34'> +3.3514034e+02 </wgt>
<wgt id='35'> +4.2556206e+02 </wgt>
<wgt id='36'> +3.7714775e+02 </wgt>
<wgt id='37'> +3.3744137e+02 </wgt>
<wgt id='38'> +4.2556205e+02 </wgt>
<wgt id='39'> +3.1117391e+02 </wgt>
<wgt id='40'> +3.9499853e+02 </wgt>
<wgt id='41'> +3.5021330e+02 </wgt>
<wgt id='42'> +3.1348360e+02 </wgt>
<wgt id='43'> +3.9499852e+02 </wgt>
<wgt id='44'> +2.8920560e+02 </wgt>
<wgt id='45'> +5.0481800e+02 </wgt>
<wgt id='46'> +5.0828280e+02 </wgt>
<wgt id='47'> +5.2530527e+02 </wgt>
<wgt id='48'> +5.0865127e+02 </wgt>
<wgt id='49'> +5.0371654e+02 </wgt>
<wgt id='50'> +6.0064326e+02 </wgt>
<wgt id='51'> +4.9508266e+02 </wgt>
<wgt id='52'> +5.0278427e+02 </wgt>
<wgt id='53'> +5.0835522e+02 </wgt>
<wgt id='54'> +5.0770163e+02 </wgt>
<wgt id='55'> +4.4889823e+02 </wgt>
<wgt id='56'> +4.6534564e+02 </wgt>
<wgt id='57'> +4.9057343e+02 </wgt>
<wgt id='58'> +5.0505557e+02 </wgt>
<wgt id='59'> +5.0044494e+02 </wgt>
<wgt id='60'> +4.8686584e+02 </wgt>
<wgt id='61'> +4.8541049e+02 </wgt>
<wgt id='62'> +4.9898150e+02 </wgt>
<wgt id='63'> +5.0520376e+02 </wgt>
<wgt id='64'> +4.9686311e+02 </wgt>
<wgt id='65'> +5.9746736e+02 </wgt>
<wgt id='66'> +4.9330567e+02 </wgt>
<wgt id='67'> +5.0938191e+02 </wgt>
<wgt id='68'> +5.4519408e+02 </wgt>
<wgt id='69'> +4.9664386e+02 </wgt>
<wgt id='70'> +4.9542158e+02 </wgt>
<wgt id='71'> +5.1436175e+02 </wgt>
<wgt id='72'> +4.8376054e+02 </wgt>
<wgt id='73'> +4.9649314e+02 </wgt>
<wgt id='74'> +5.2375952e+02 </wgt>
<wgt id='75'> +5.1722067e+02 </wgt>
<wgt id='76'> +4.8855649e+02 </wgt>
<wgt id='77'> +4.8808667e+02 </wgt>
<wgt id='78'> +5.0159757e+02 </wgt>
<wgt id='79'> +4.8573487e+02 </wgt>
<wgt id='80'> +4.9917514e+02 </wgt>
<wgt id='81'> +4.9380253e+02 </wgt>
<wgt id='82'> +5.1699026e+02 </wgt>
<wgt id='83'> +5.1763107e+02 </wgt>
<wgt id='84'> +5.5773580e+02 </wgt>
<wgt id='85'> +5.3230575e+02 </wgt>
<wgt id='86'> +5.0372178e+02 </wgt>
<wgt id='87'> +5.0611226e+02 </wgt>
<wgt id='88'> +5.1505709e+02 </wgt>
<wgt id='89'> +5.1894808e+02 </wgt>
<wgt id='90'> +5.1176346e+02 </wgt>
<wgt id='91'> +5.3705924e+02 </wgt>
<wgt id='92'> +4.5693052e+02 </wgt>
<wgt id='93'> +4.9797812e+02 </wgt>
<wgt id='94'> +4.9961263e+02 </wgt>
<wgt id='95'> +4.8179165e+02 </wgt>
<wgt id='96'> +5.5137469e+02 </wgt>
<wgt id='97'> +5.1086543e+02 </wgt>
<wgt id='98'> +4.8164986e+02 </wgt>
<wgt id='99'> +4.8869786e+02 </wgt>
<wgt id='100'> +4.9521684e+02 </wgt>
<wgt id='101'> +5.3747372e+02 </wgt>
<wgt id='102'> +4.9566193e+02 </wgt>
<wgt id='103'> +5.5225447e+02 </wgt>
<wgt id='104'> +5.0588816e+02 </wgt>
<wgt id='105'> +5.2240674e+02 </wgt>
<wgt id='106'> +4.5767986e+02 </wgt>
<wgt id='107'> +4.9265571e+02 </wgt>
<wgt id='108'> +4.4581113e+02 </wgt>
<wgt id='109'> +4.7003812e+02 </wgt>
<wgt id='110'> +5.0460845e+02 </wgt>
<wgt id='111'> +4.8921013e+02 </wgt>
<wgt id='112'> +4.7803244e+02 </wgt>
<wgt id='113'> +4.5973841e+02 </wgt>
<wgt id='114'> +4.9765041e+02 </wgt>
<wgt id='115'> +5.0013609e+02 </wgt>
<wgt id='116'> +5.0951614e+02 </wgt>
<wgt id='117'> +5.0977209e+02 </wgt>
<wgt id='118'> +5.2241035e+02 </wgt>
<wgt id='119'> +4.8279709e+02 </wgt>
<wgt id='120'> +4.9931514e+02 </wgt>
<wgt id='121'> +4.8830819e+02 </wgt>
<wgt id='122'> +4.9737265e+02 </wgt>
<wgt id='123'> +5.1299796e+02 </wgt>
<wgt id='124'> +5.4537174e+02 </wgt>
<wgt id='125'> +5.4587124e+02 </wgt>
<wgt id='126'> +5.2700678e+02 </wgt>
<wgt id='127'> +5.2200951e+02 </wgt>
<wgt id='128'> +4.6518951e+02 </wgt>
<wgt id='129'> +5.7472693e+02 </wgt>
<wgt id='130'> +5.1032032e+02 </wgt>
<wgt id='131'> +5.4137160e+02 </wgt>
<wgt id='132'> +5.0227196e+02 </wgt>
<wgt id='133'> +5.0488156e+02 </wgt>
<wgt id='134'> +4.7467468e+02 </wgt>
<wgt id='135'> +5.1815075e+02 </wgt>
<wgt id='136'> +4.8566977e+02 </wgt>
<wgt id='137'> +4.7638060e+02 </wgt>
<wgt id='138'> +4.6277311e+02 </wgt>
<wgt id='139'> +5.1662520e+02 </wgt>
<wgt id='140'> +5.3526471e+02 </wgt>
<wgt id='141'> +5.0512129e+02 </wgt>
<wgt id='142'> +5.0411737e+02 </wgt>
<wgt id='143'> +5.0191973e+02 </wgt>
<wgt id='144'> +5.0171150e+02 </wgt>
<wgt id='145'> +5.0619887e+02 </wgt>
</rwgt>
</event>
<event>
 4      1 +5.0481800e+02 2.24297100e+02 7.54677100e-03 1.13071900e-01
       21 -1    0    0  503  502 +0.0000000000e+00 +0.0000000000e+00 +1.4450070812e+03 1.4450070812e+03 0.0000000000e+00 0.0000e+00 1.0000e+00
       21 -1    0    0  501  503 -0.0000000000e+00 -0.0000000000e+00 -3.6546865169e+01 3.6546865169e+01 0.0000000000e+00 0.0000e+00 1.0000e+00
        6  1    1    2  501    0 +8.6067351687e+01 +1.1389726155e+02 +5.4301318128e+02 5.8751382133e+02 1.7300000000e+02 0.0000e+00 1.0000e+00
       -6  1    1    2    0  502 -8.6067351687e+01 -1.1389726155e+02 +8.6544703477e+02 8.9404012505e+02 1.7300000000e+02 0.0000e+00 1.0000e+00
<mgrwt>
<rscale>  2 0.22429707E+03</rscale>
<asrwt>0</asrwt>
<pdfrwt beam="1">  1       21 0.22230874E+00 0.22429707E+03</pdfrwt>
<pdfrwt beam="2">  1       21 0.56225958E-02 0.22429707E+03</pdfrwt>
<totfact> 0.20940626E+04</totfact>
</mgrwt>
<rwgt>
<wgt id='1'> +6.7920202e+02 </wgt>
<wgt id='2'> +6.0268951e+02 </wgt>
<wgt id='3'> +5.0481800e+02 </wgt>
<wgt id='4'> +6.7920203e+02 </wgt>
<wgt id='5'> +4.9977542e+02 </wgt>
<wgt id='6'> +6.1434700e+02 </wgt>
<wgt id='7'> +5.4156810e+02 </wgt>
<wgt id='8'> +4.5250094e+02 </wgt>
<wgt id='9'> +6.1434700e+02 </wgt>
<wgt id='10'> +4.4804635e+02 </wgt>
<wgt id='11'> +5.5067885e+02 </wgt>
<wgt id='12'> +4.8610610e+02 </wgt>
<wgt id='13'> +4.0706350e+02 </wgt>
<wgt id='14'> +5.5067885e+02 </wgt>
<wgt id='15'> +4.0310991e+02 </wgt>
<wgt id='16'> +5.5811033e+02 </wgt>
<wgt id='17'> +5.0229240e+02 </wgt>
<wgt id='18'> +4.2638591e+02 </wgt>
<wgt id='19'> +5.5811033e+02 </wgt>
<wgt id='20'> +4.2232415e+02 </wgt>
<wgt id='21'> +4.5135270e+02 </wgt>
<wgt id='22'> +3.8219720e+02 </wgt>
<wgt id='23'> +5.0481800e+02 </wgt>
<wgt id='24'> +3.7861165e+02 </wgt>
<wgt id='25'> +4.5250094e+02 </wgt>
<wgt id='26'> +4.0512967e+02 </wgt>
<wgt id='27'> +3.4381924e+02 </wgt>
<wgt id='28'> +4.5250094e+02 </wgt>
<wgt id='29'> +3.4063911e+02 </wgt>
<wgt id='30'> +4.7139837e+02 </wgt>
<wgt id='31'> +4.2655781e+02 </wgt>
<wgt id='32'> +3.6489565e+02 </wgt>
<wgt id='33'> +4.7139837e+02 </wgt>
<wgt id='34'> +3.6157228e+02 </wgt>
<wgt id='35'> +4.2638591e+02 </wgt>
<wgt id='36'> +3.8329869e+02 </wgt>
<wgt id='37'> +3.2707950e+02 </wgt>
<wgt id='38'> +4.2638591e+02 </wgt>
<wgt id='39'> +3.2414788e+02 </wgt>
<wgt id='40'> +3.8219720e+02 </wgt>
<wgt id='41'> +3.4404507e+02 </wgt>
<wgt id='42'> +2.9423613e+02 </wgt>
<wgt id='43'> +3.8219720e+02 </wgt>
<wgt id='44'> +2.9163773e+02 </wgt>
<wgt id='45'> +5.0481800e+02 </wgt>
<wgt id='46'> +5.1645380e+02 </wgt>
<wgt id='47'> +5.3347168e+02 </wgt>
<wgt id='48'> +5.0316799e+02 </wgt>
<wgt id='49'> +4.5843655e+02 </wgt>
<wgt id='50'> +5.8732611e+02 </wgt>
<wgt id='51'> +4.7278375e+02 </wgt>
<wgt id='52'> +4.5690951e+02 </wgt>
<wgt id='53'> +5.1660772e+02 </wgt>
<wgt id='54'> +5.3883622e+02 </wgt>
<wgt id='55'> +5.8660314e+02 </wgt>
<wgt id='56'> +4.8980969e+02 </wgt>
<wgt id='57'> +5.4033941e+02 </wgt>
<wgt id='58'> +4.4930447e+02 </wgt>
<wgt id='59'> +5.4829199e+02 </wgt>
<wgt id='60'> +4.9954539e+02 </wgt>
<wgt id='61'> +4.2625415e+02 </wgt>
<wgt id='62'> +4.5581468e+02 </wgt>
<wgt id='63'> +5.3705806e+02 </wgt>
<wgt id='64'> +5.0736221e+02 </wgt>
<wgt id='65'> +4.3911638e+02 </wgt>
<wgt id='66'> +5.1614972e+02 </wgt>
<wgt id='67'> +5.0841981e+02 </wgt>
<wgt id='68'> +6.3699446e+02 </wgt>
<wgt id='69'> +5.6103905e+02 </wgt>
<wgt id='70'> +5.6801773e+02 </wgt>
<wgt id='71'> +4.5817237e+02 </wgt>
<wgt id='72'> +4.5162382e+02 </wgt>
<wgt id='73'> +4.5199943e+02 </wgt>
<wgt id='74'> +5.9734214e+02 </wgt>
<wgt id='75'> +5.6805648e+02 </wgt>
<wgt id='76'> +5.2090690e+02 </wgt>
<wgt id='77'> +4.6713380e+02 </wgt>
<wgt id='78'> +4.2636917e+02 </wgt>
<wgt id='79'> +5.5302315e+02 </wgt>
<wgt id='80'> +4.3448542e+02 </wgt>
<wgt id='81'> +5.3432171e+02 </wgt>
<wgt id='82'> +5.0092043e+02 </wgt>
<wgt id='83'> +4.9781184e+02 </wgt>
<wgt id='84'> +4.8056292e+02 </wgt>
<wgt id='85'> +4.4390141e+02 </wgt>
<wgt id='86'> +5.3918550e+02 </wgt>
<wgt id='87'> +4.9222820e+02 </wgt>
<wgt id='88'> +4.9650394e+02 </wgt>
<wgt id='89'> +4.0223351e+02 </wgt>
<wgt id='90'> +4.5391215e+02 </wgt>
<wgt id='91'> +4.2217927e+02 </wgt>
<wgt id='92'> +4.7705239e+02 </wgt>
<wgt id='93'> +5.1398675e+02 </wgt>
<wgt id='94'> +4.5857100e+02 </wgt>
<wgt id='95'> +5.3147601e+02 </wgt>
<wgt id='96'> +5.2692506e+02 </wgt>
<wgt id='97'> +4.4770051e+02 </wgt>
<wgt id='98'> +5.6127154e+02 </wgt>
<wgt id='99'> +4.1116118e+02 </wgt>
<wgt id='100'> +3.6857597e+02 </wgt>
<wgt id='101'> +5.9187923e+02 </wgt>
<wgt id='102'> +5.7498371e+02 </wgt>
<wgt id='103'> +4.6495467e+02 </wgt>
<wgt id='104'> +5.4943553e+02 </wgt>
<wgt id='105'> +5.1564372e+02 </wgt>
<wgt id='106'> +5.0071849e+02 </wgt>
<wgt id='107'> +4.9837096e+02 </wgt>
<wgt id='108'> +4.7774165e+02 </wgt>
<wgt id='109'> +5.0313283e+02 </wgt>
<wgt id='110'> +4.5105914e+02 </wgt>
<wgt id='111'> +4.8705378e+02 </wgt>
<wgt id='112'> +5.3254403e+02 </wgt>
<wgt id='113'> +5.5421639e+02 </wgt>
<wgt id='114'> +5.2565240e+02 </wgt>
<wgt id='115'> +4.6586409e+02 </wgt>
<wgt id='116'> +5.6061045e+02 </wgt>
<wgt id='117'> +4.9818014e+02 </wgt>
<wgt id='118'> +5.1318727e+02 </wgt>
<wgt id='119'> +5.6493230e+02 </wgt>
<wgt id='120'> +5.0442637e+02 </wgt>
<wgt id='121'> +4.8892062e+02 </wgt>
<wgt id='122'> +4.8989854e+02 </wgt>
<wgt id='123'> +4.7176852e+02 </wgt>
<wgt id='124'> +5.6665273e+02 </wgt>
<wgt id='125'> +6.5482554e+02 </wgt>
<wgt id='126'> +4.8830230e+02 </wgt>
<wgt id='127'> +4.7279971e+02 </wgt>
<wgt id='128'> +4.9613550e+02 </wgt>
<wgt id='129'> +5.0126967e+02 </wgt>
<wgt id='130'> +5.0998033e+02 </wgt>
<wgt id='131'> +4.5103343e+02 </wgt>
<wgt id='132'> +5.4912488e+02 </wgt>
<wgt id='133'> +5.5561991e+02 </wgt>
<wgt id='134'> +5.4073818e+02 </wgt>
<wgt id='135'> +4.7693569e+02 </wgt>
<wgt id='136'> +6.0534590e+02 </wgt>
<wgt id='137'> +5.4852775e+02 </wgt>
<wgt id='138'> +5.2735904e+02 </wgt>
<wgt id='139'> +5.2073985e+02 </wgt>
<wgt id='140'> +4.8924317e+02 </wgt>
<wgt id='141'> +5.9551824e+02 </wgt>
<wgt id='142'> +3.2285503e+02 </wgt>
<wgt id='143'> +5.1479777e+02 </wgt>
<wgt id='144'> +4.5072249e+02 </wgt>
<wgt id='145'> +4.5842807e+02 </wgt>
</rwgt>
</event>
<event>
 4      1 +5.0481800e+02 1.98534000e+02 7.54677100e-03 1.15098200e-01
       21 -1    0    0  503  502 +0.0000000000e+00 +0.0000000000e+00 +1.9598831745e+02 1.9598831745e+02 0.0000000000e+00 0.0000e+00 1.0000e+00
       21 -1    0    0  501  503 -0.0000000000e+00 -0.0000000000e+00 -2.0117371158e+02 2.0117371158e+02 0.0000000000e+00 0.0000e+00 1.0000e+00
        6  1    1    2  501    0 +9.4921861287e+01 +2.1831069291e+01 +8.6330466403e-01 1.9853589255e+02 1.7300000000e+02 0.0000e+00 1.0000e+00
       -6  1    1    2    0  502 -9.4921861287e+01 -2.1831069291e+01 -6.0486987996e+00 1.9862613648e+02 1.7300000000e+02 0.0000e+00 1.0000e+00
<mgrwt>
<rscale>  2 0.19853402E+03</rscale>
<asrwt>0</asrwt>
<pdfrwt beam="1">  1       21 0.30152049E-01 0.19853402E+03</pdfrwt>
<pdfrwt beam="2">  1       21 0.30949801E-01 0.19853402E+03</pdfrwt>
<totfact> 0.10555742E+05</totfact>
</mgrwt>
<rwgt>
<wgt id='1'> +6.4290233e+02 </wgt>
<wgt id='2'> +5.0494532e+02 </wgt>
<wgt id='3'> +5.0481800e+02 </wgt>
<wgt id='4'> +6.4290233e+02 </wgt>
<wgt id='5'> +5.0479212e+02 </wgt>
<wgt id='6'> +6.1853114e+02 </wgt>
<wgt id='7'> +4.7713400e+02 </wgt>
<wgt id='8'> +4.7701175e+02 </wgt>
<wgt id='9'> +6.1853115e+02 </wgt>
<wgt id='10'> +4.7698690e+02 </wgt>
<wgt id='11'> +5.8446137e+02 </wgt>
<wgt id='12'> +4.5039755e+02 </wgt>
<wgt id='13'> +4.5028187e+02 </wgt>
<wgt id='14'> +5.8446137e+02 </wgt>
<wgt id='15'> +4.5025836e+02 </wgt>
<wgt id='16'> +5.2470870e+02 </wgt>
<wgt id='17'> +4.2543977e+02 </wgt>
<wgt id='18'> +4.2534018e+02 </wgt>
<wgt id='19'> +5.2470870e+02 </wgt>
<wgt id='20'> +4.2531994e+02 </wgt>
<wgt id='21'> +4.0200745e+02 </wgt>
<wgt id='22'> +4.0191170e+02 </wgt>
<wgt id='23'> +5.0481800e+02 </wgt>
<wgt id='24'> +4.0189224e+02 </wgt>
<wgt id='25'> +4.7701175e+02 </wgt>
<wgt id='26'> +3.7948076e+02 </wgt>
<wgt id='27'> +3.7939014e+02 </wgt>
<wgt id='28'> +4.7701175e+02 </wgt>
<wgt id='29'> +3.7937172e+02 </wgt>
<wgt id='30'> +4.4209931e+02 </wgt>
<wgt id='31'> +3.6329330e+02 </wgt>
<wgt id='32'> +3.6321314e+02 </wgt>
<wgt id='33'> +4.4209932e+02 </wgt>
<wgt id='34'> +3.6319685e+02 </wgt>
<wgt id='35'> +4.2534018e+02 </wgt>
<wgt id='36'> +3.4328387e+02 </wgt>
<wgt id='37'> +3.4320673e+02 </wgt>
<wgt id='38'> +4.2534018e+02 </wgt>
<wgt id='39'> +3.4319105e+02 </wgt>
<wgt id='40'> +4.0191170e+02 </wgt>
<wgt id='41'> +3.2404779e+02 </wgt>
<wgt id='42'> +3.2397476e+02 </wgt>
<wgt id='43'> +4.0191170e+02 </wgt>
<wgt id='44'> +3.2395992e+02 </wgt>
<wgt id='45'> +5.0481800e+02 </wgt>
<wgt id='46'> +5.0130100e+02 </wgt>
<wgt id='47'> +5.2116728e+02 </wgt>
<wgt id='48'> +5.0425411e+02 </wgt>
<wgt id='49'> +5.0420677e+02 </wgt>
<wgt id='50'> +5.7981849e+02 </wgt>
<wgt id='51'> +4.9514010e+02 </wgt>
<wgt id='52'> +5.0075432e+02 </wgt>
<wgt id='53'> +5.1418770e+02 </wgt>
<wgt id='54'> +5.0766028e+02 </wgt>
<wgt id='55'> +4.5084609e+02 </wgt>
<wgt id='56'> +4.7390749e+02 </wgt>
<wgt id='57'> +4.9066928e+02 </wgt>
<wgt id='58'> +5.1142041e+02 </wgt>
<wgt id='59'> +4.9254162e+02 </wgt>
<wgt id='60'> +4.7981445e+02 </wgt>
<wgt id='61'> +5.0050992e+02 </wgt>
<wgt id='62'> +4.9770139e+02 </wgt>
<wgt id='63'> +5.0529717e+02 </wgt>
<wgt id='64'> +5.0361853e+02 </wgt>
<wgt id='65'> +5.9746598e+02 </wgt>
<wgt id='66'> +4.9221946e+02 </wgt>
<wgt id='67'> +5.0944396e+02 </wgt>
<wgt id='68'> +5.3600463e+02 </wgt>
<wgt id='69'> +4.8853735e+02 </wgt>
<wgt id='70'> +4.9709260e+02 </wgt>
<wgt id='71'> +5.1451509e+02 </wgt>
<wgt id='72'> +4.9632412e+02 </wgt>
<wgt id='73'> +4.9991623e+02 </wgt>
<wgt id='74'> +5.1571338e+02 </wgt>
<wgt id='75'> +5.1525780e+02 </wgt>
<wgt id='76'> +4.9053994e+02 </wgt>
<wgt id='77'> +4.8381995e+02 </wgt>
<wgt id='78'> +5.0987396e+02 </wgt>
<wgt id='79'> +4.8160856e+02 </wgt>
<wgt id='80'> +5.0213783e+02 </wgt>
<wgt id='81'> +4.9688592e+02 </wgt>
<wgt id='82'> +5.2129730e+02 </wgt>
<wgt id='83'> +5.1397931e+02 </wgt>
<wgt id='84'> +5.5325563e+02 </wgt>
<wgt id='85'> +5.3191723e+02 </wgt>
<wgt id='86'> +4.9945496e+02 </wgt>
<wgt id='87'> +5.0340313e+02 </wgt>
<wgt id='88'> +5.1310025e+02 </wgt>
<wgt id='89'> +5.1500633e+02 </wgt>
<wgt id='90'> +5.0867001e+02 </wgt>
<wgt id='91'> +5.3880281e+02 </wgt>
<wgt id='92'> +4.7029780e+02 </wgt>
<wgt id='93'> +4.9408900e+02 </wgt>
<wgt id='94'> +5.0481581e+02 </wgt>
<wgt id='95'> +4.8504366e+02 </wgt>
<wgt id='96'> +5.4144860e+02 </wgt>
<wgt id='97'> +5.1511378e+02 </wgt>
<wgt id='98'> +4.8047051e+02 </wgt>
<wgt id='99'> +4.9184445e+02 </wgt>
<wgt id='100'> +5.0749158e+02 </wgt>
<wgt id='101'> +5.2217153e+02 </wgt>
<wgt id='102'> +4.8355214e+02 </wgt>
<wgt id='103'> +5.4519430e+02 </wgt>
<wgt id='104'> +5.0233691e+02 </wgt>
<wgt id='105'> +5.2695686e+02 </wgt>
<wgt id='106'> +4.7006099e+02 </wgt>
<wgt id='107'> +5.0491783e+02 </wgt>
<wgt id='108'> +4.5839680e+02 </wgt>
<wgt id='109'> +4.7767863e+02 </wgt>
<wgt id='110'> +5.0682339e+02 </wgt>
<wgt id='111'> +4.9370625e+02 </wgt>
<wgt id='112'> +4.8547273e+02 </wgt>
<wgt id='113'> +4.6617456e+02 </wgt>
<wgt id='114'> +5.0991607e+02 </wgt>
<wgt id='115'> +5.1376293e+02 </wgt>
<wgt id='116'> +4.9890573e+02 </wgt>
<wgt id='117'> +5.1447121e+02 </wgt>
<wgt id='118'> +5.1253068e+02 </wgt>
<wgt id='119'> +4.8668229e+02 </wgt>
<wgt id='120'> +5.0806610e+02 </wgt>
<wgt id='121'> +4.9198656e+02 </wgt>
<wgt id='122'> +4.9889103e+02 </wgt>
<wgt id='123'> +5.1045833e+02 </wgt>
<wgt id='124'> +5.3221631e+02 </wgt>
<wgt id='125'> +5.3396613e+02 </wgt>
<wgt id='126'> +5.2245966e+02 </wgt>
<wgt id='127'> +5.1796157e+02 </wgt>
<wgt id='128'> +4.7293989e+02 </wgt>
<wgt id='129'> +5.6949830e+02 </wgt>
<wgt id='130'> +5.0858284e+02 </wgt>
<wgt id='131'> +5.4133607e+02 </wgt>
<wgt id='132'> +4.9393457e+02 </wgt>
<wgt id='133'> +4.9705005e+02 </wgt>
<wgt id='134'> +4.7334552e+02 </wgt>
<wgt id='135'> +5.1788973e+02 </wgt>
<wgt id='136'> +4.7939928e+02 </wgt>
<wgt id='137'> +4.7406818e+02 </wgt>
<wgt id='138'> +4.5513870e+02 </wgt>
<wgt id='139'> +5.1216626e+02 </wgt>
<wgt id='140'> +5.3943802e+02 </wgt>
<wgt id='141'> +5.0279279e+02 </wgt>
<wgt id='142'> +5.1409743e+02 </wgt>
<wgt id='143'> +4.9743997e+02 </wgt>
<wgt id='144'> +5.0704995e+02 </wgt>
<wgt id='145'> +5.0588720e+02 </wgt>
</rwgt>
</event>
<event>
 4      1 +5.0481800e+02 3.06037200e+02 7.54677100e-03 1.08226100e-01
       21 -1    0    0  501  502 +0.0000000000e+00 +0.0000000000e+00 +1.6341329396e+02 1.6341329396e+02 0.0000000000e+00 0.0000e+00 1.0000e+00
       21 -1    0    0  502  503 -0.0000000000e+00 -0.0000000000e+00 -1.5378720802e+03 1.5378720802e+03 0.0000000000e+00 0.0000e+00 -1.0000e+00
        6  1    1    2  501    0 -1.0505765802e+01 -2.5222890396e+02 -1.3492553968e+01 3.0633452323e+02 1.7300000000e+02 0.0000e+00 1.0000e+00
       -6  1    1    2    0  503 +1.0505765802e+01 +2.5222890396e+02 -1.3609662323e+03 1.3949508509e+03 1.7300000000e+02 0.0000e+00 -1.0000e+00
<mgrwt>
<rscale>  2 0.30603724E+03</rscale>
<asrwt>0</asrwt>
<pdfrwt beam="1">  1       21 0.25140506E-01 0.30603724E+03</pdfrwt>
<pdfrwt beam="2">  1       21 0.23659571E+00 0.30603724E+03</pdfrwt>
<totfact> 0.10754320E+03</totfact>
</mgrwt>
<rwgt>
<wgt id='1'> +7.0822612e+02 </wgt>
<wgt id='2'> +5.2637506e+02 </wgt>
<wgt id='3'> +5.0481800e+02 </wgt>
<wgt id='4'> +7.0822612e+02 </wgt>
<wgt id='5'> +4.0238927e+02 </wgt>
<wgt id='6'> +6.0462409e+02 </wgt>
<wgt id='7'> +4.5135216e+02 </wgt>
<wgt id='8'> +4.3334151e+02 </wgt>
<wgt id='9'> +6.0462409e+02 </wgt>
<wgt id='10'> +3.4749904e+02 </wgt>
<wgt id='11'> +5.1901618e+02 </wgt>
<wgt id='12'> +3.9029767e+02 </wgt>
<wgt id='13'> +3.7511678e+02 </wgt>
<wgt id='14'> +5.1901618e+02 </wgt>
<wgt id='15'> +3.0252024e+02 </wgt>
<wgt id='16'> +5.9131831e+02 </wgt>
<wgt id='17'> +4.4656405e+02 </wgt>
<wgt id='18'> +4.2900608e+02 </wgt>
<wgt id='19'> +5.9131831e+02 </wgt>
<wgt id='20'> +3.4502295e+02 </wgt>
<wgt id='21'> +3.8291641e+02 </wgt>
<wgt id='22'> +3.6826369e+02 </wgt>
<wgt id='23'> +5.0481800e+02 </wgt>
<wgt id='24'> +2.9795810e+02 </wgt>
<wgt id='25'> +4.3334151e+02 </wgt>
<wgt id='26'> +3.3111923e+02 </wgt>
<wgt id='27'> +3.1878297e+02 </wgt>
<wgt id='28'> +4.3334151e+02 </wgt>
<wgt id='29'> +2.5939167e+02 </wgt>
<wgt id='30'> +5.0251606e+02 </wgt>
<wgt id='31'> +3.8361735e+02 </wgt>
<wgt id='32'> +3.6907413e+02 </wgt>
<wgt id='33'> +5.0251606e+02 </wgt>
<wgt id='34'> +2.9910261e+02 </wgt>
<wgt id='35'> +4.2900608e+02 </wgt>
<wgt id='36'> +3.2894135e+02 </wgt>
<wgt id='37'> +3.1681743e+02 </wgt>
<wgt id='38'> +4.2900608e+02 </wgt>
<wgt id='39'> +2.5830179e+02 </wgt>
<wgt id='40'> +3.6826369e+02 </wgt>
<wgt id='41'> +2.8444539e+02 </wgt>
<wgt id='42'> +2.7424914e+02 </wgt>
<wgt id='43'> +3.6826369e+02 </wgt>
<wgt id='44'> +2.2486831e+02 </wgt>
<wgt id='45'> +5.0481800e+02 </wgt>
<wgt id='46'> +5.2021346e+02 </wgt>
<wgt id='47'> +5.5345065e+02 </wgt>
<wgt id='48'> +5.0840673e+02 </wgt>
<wgt id='49'> +4.5390853e+02 </wgt>
<wgt id='50'> +6.2438370e+02 </wgt>
<wgt id='51'> +4.7181914e+02 </wgt>
<wgt id='52'> +4.4684911e+02 </wgt>
<wgt id='53'> +5.2445674e+02 </wgt>
<wgt id='54'> +5.3932866e+02 </wgt>
<wgt id='55'> +5.7774740e+02 </wgt>
<wgt id='56'> +4.7952396e+02 </wgt>
<wgt id='57'> +5.3592020e+02 </wgt>
<wgt id='58'> +4.3725899e+02 </wgt>
<wgt id='59'> +5.4653146e+02 </wgt>
<wgt id='60'> +4.8966188e+02 </wgt>
<wgt id='61'> +4.1101277e+02 </wgt>
<wgt id='62'> +4.5125298e+02 </wgt>
<wgt id='63'> +5.3718196e+02 </wgt>
<wgt id='64'> +5.0061531e+02 </wgt>
<wgt id='65'> +4.4770151e+02 </wgt>
<wgt id='66'> +5.1883937e+02 </wgt>
<wgt id='67'> +5.0836889e+02 </wgt>
<wgt id='68'> +6.6664868e+02 </wgt>
<wgt id='69'> +5.8306051e+02 </wgt>
<wgt id='70'> +5.8078818e+02 </wgt>
<wgt id='71'> +4.5366280e+02 </wgt>
<wgt id='72'> +4.2793316e+02 </wgt>
<wgt id='73'> +4.4403431e+02 </wgt>
<wgt id='74'> +6.1846735e+02 </wgt>
<wgt id='75'> +5.8618854e+02 </wgt>
<wgt id='76'> +5.1468764e+02 </wgt>
<wgt id='77'> +4.5905905e+02 </wgt>
<wgt id='78'> +4.1903496e+02 </wgt>
<wgt id='79'> +5.5642710e+02 </wgt>
<wgt id='80'> +4.2409910e+02 </wgt>
<wgt id='81'> +5.3534958e+02 </wgt>
<wgt id='82'> +5.0383945e+02 </wgt>
<wgt id='83'> +5.0879353e+02 </wgt>
<wgt id='84'> +4.8828919e+02 </wgt>
<wgt id='85'> +4.4294683e+02 </wgt>
<wgt id='86'> +5.4968476e+02 </wgt>
<wgt id='87'> +4.8940940e+02 </wgt>
<wgt id='88'> +5.1068461e+02 </wgt>
<wgt id='89'> +3.8783677e+02 </wgt>
<wgt id='90'> +4.4418145e+02 </wgt>
<wgt id='91'> +4.1663609e+02 </wgt>
<wgt id='92'> +4.5741596e+02 </wgt>
<wgt id='93'> +5.1783399e+02 </wgt>
<wgt id='94'> +4.5083675e+02 </wgt>
<wgt id='95'> +5.2036098e+02 </wgt>
<wgt id='96'> +5.4298477e+02 </wgt>
<wgt id='97'> +4.4167943e+02 </wgt>
<wgt id='98'> +5.7064106e+02 </wgt>
<wgt id='99'> +3.9929138e+02 </wgt>
<wgt id='100'> +3.5122169e+02 </wgt>
<wgt id='101'> +6.0936323e+02 </wgt>
<wgt id='102'> +5.8685655e+02 </wgt>
<wgt id='103'> +4.6507074e+02 </wgt>
<wgt id='104'> +5.6209757e+02 </wgt>
<wgt id='105'> +5.1180925e+02 </wgt>
<wgt id='106'> +4.8631286e+02 </wgt>
<wgt id='107'> +4.9307864e+02 </wgt>
<wgt id='108'> +4.6102532e+02 </wgt>
<wgt id='109'> +4.9148878e+02 </wgt>
<wgt id='110'> +4.3806543e+02 </wgt>
<wgt id='111'> +4.7943181e+02 </wgt>
<wgt id='112'> +5.2391163e+02 </wgt>
<wgt id='113'> +5.5314337e+02 </wgt>
<wgt id='114'> +5.1184020e+02 </wgt>
<wgt id='115'> +4.6826516e+02 </wgt>
<wgt id='116'> +5.7563075e+02 </wgt>
<wgt id='117'> +5.0274600e+02 </wgt>
<wgt id='118'> +5.1867707e+02 </wgt>
<wgt id='119'> +5.5719090e+02 </wgt>
<wgt id='120'> +5.0205970e+02 </wgt>
<wgt id='121'> +4.7451086e+02 </wgt>
<wgt id='122'> +4.8409118e+02 </wgt>
<wgt id='123'> +4.7225923e+02 </wgt>
<wgt id='124'> +5.7986052e+02 </wgt>
<wgt id='125'> +6.8421864e+02 </wgt>
<wgt id='126'> +4.9291026e+02 </wgt>
<wgt id='127'> +4.7256862e+02 </wgt>
<wgt id='128'> +4.9483543e+02 </wgt>
<wgt id='129'> +5.0545181e+02 </wgt>
<wgt id='130'> +5.2598275e+02 </wgt>
<wgt id='131'> +4.4918214e+02 </wgt>
<wgt id='132'> +5.4325054e+02 </wgt>
<wgt id='133'> +5.6237930e+02 </wgt>
<wgt id='134'> +5.3897492e+02 </wgt>
<wgt id='135'> +4.7612007e+02 </wgt>
<wgt id='136'> +6.0297801e+02 </wgt>
<wgt id='137'> +5.6206188e+02 </wgt>
<wgt id='138'> +5.4183986e+02 </wgt>
<wgt id='139'> +5.2399090e+02 </wgt>
<wgt id='140'> +4.9031277e+02 </wgt>
<wgt id='141'> +6.1418313e+02 </wgt>
<wgt id='142'> +3.0148350e+02 </wgt>
<wgt id='143'> +5.1098456e+02 </wgt>
<wgt id='144'> +4.3991943e+02 </wgt>
<wgt id='145'> +4.5809817e+02 </wgt>
</rwgt>
</event>
<event>
 4      1 +5.0481800e+02 1.73106800e+02 7.54677100e-03 1.17464600e-01
        2 -1    0    0  502    0 +0.0000000000e+00 +0.0000000000e+00 +1.0882314372e+03 1.0882314372e+03 0.0000000000e+00 0.0000e+00 1.0000e+00
       -2 -1    0    0    0  501 -0.0000000000e+00 -0.0000000000e+00 -3.5979448616e+01 3.5979448616e+01 0.0000000000e+00 0.0000e+00 -1.0000e+00
        6  1    1    2  502    0 +2.5480765911e+00 -5.5193255353e+00 +2.5383036629e+02 3.0723901201e+02 1.7300000000e+02 0.0000e+00 -1.0000e+00
       -6  1    1    2    0  501 -2.5480765911e+00 +5.5193255353e+00 +7.9842162232e+02 8.1697187384e+02 1.7300000000e+02 0.0000e+00 1.0000e+00
<mgrwt>
<rscale>  2 0.17310678E+03</rscale>
<asrwt>0</asrwt>
<pdfrwt beam="1">  1        2 0.16742020E+00 0.17310678E+03</pdfrwt>
<pdfrwt beam="2">  1       -2 0.55353006E-02 0.17310678E+03</pdfrwt>
<totfact> 0.38473228E+03</totfact>
</mgrwt>
<rwgt>
<wgt id='1'> +6.0961978e+02 </wgt>
<wgt id='2'> +1.4223872e+03 </wgt>
<wgt id='3'> +5.0481800e+02 </wgt>
<wgt id='4'> +6.0961978e+02 </wgt>
<wgt id='5'> +4.8849519e+02 </wgt>
<wgt id='6'> +6.2257959e+02 </wgt>
<wgt id='7'> +1.5423880e+03 </wgt>
<wgt id='8'> +5.1150352e+02 </wgt>
<wgt id='9'> +6.2257960e+02 </wgt>
<wgt id='10'> +4.9430169e+02 </wgt>
<wgt id='11'> +6.3082468e+02 </wgt>
<wgt id='12'> +1.6335150e+03 </wgt>
<wgt id='13'> +5.1504768e+02 </wgt>
<wgt id='14'> +6.3082469e+02 </wgt>
<wgt id='15'> +4.9721688e+02 </wgt>
<wgt id='16'> +4.9430955e+02 </wgt>
<wgt id='17'> +1.0095337e+03 </wgt>
<wgt id='18'> +4.2360067e+02 </wgt>
<wgt id='19'> +4.9430955e+02 </wgt>
<wgt id='20'> +4.1155377e+02 </wgt>
<wgt id='21'> +1.0947038e+03 </wgt>
<wgt id='22'> +4.2921059e+02 </wgt>
<wgt id='23'> +5.0481800e+02 </wgt>
<wgt id='24'> +4.1644571e+02 </wgt>
<wgt id='25'> +5.1150352e+02 </wgt>
<wgt id='26'> +1.1593808e+03 </wgt>
<wgt id='27'> +4.3218455e+02 </wgt>
<wgt id='28'> +5.1150352e+02 </wgt>
<wgt id='29'> +4.1890174e+02 </wgt>
<wgt id='30'> +4.1478286e+02 </wgt>
<wgt id='31'> +7.5341588e+02 </wgt>
<wgt id='32'> +3.6082450e+02 </wgt>
<wgt id='33'> +4.1478286e+02 </wgt>
<wgt id='34'> +3.5141929e+02 </wgt>
<wgt id='35'> +4.2360067e+02 </wgt>
<wgt id='36'> +8.1697843e+02 </wgt>
<wgt id='37'> +3.6560306e+02 </wgt>
<wgt id='38'> +4.2360067e+02 </wgt>
<wgt id='39'> +3.5559644e+02 </wgt>
<wgt id='40'> +4.2921059e+02 </wgt>
<wgt id='41'> +8.6524690e+02 </wgt>
<wgt id='42'> +3.6813628e+02 </wgt>
<wgt id='43'> +4.2921059e+02 </wgt>
<wgt id='44'> +3.5769360e+02 </wgt>
<wgt id='45'> +5.0481800e+02 </wgt>
<wgt id='46'> +5.0343132e+02 </wgt>
<wgt id='47'> +4.8757668e+02 </wgt>
<wgt id='48'> +4.9691357e+02 </wgt>
<wgt id='49'> +4.9868369e+02 </wgt>
<wgt id='50'> +4.6165057e+02 </wgt>
<wgt id='51'> +5.1092948e+02 </wgt>
<wgt id='52'> +4.9357875e+02 </wgt>
<wgt id='53'> +5.2116394e+02 </wgt>
<wgt id='54'> +4.9609545e+02 </wgt>
<wgt id='55'> +4.8700697e+02 </wgt>
<wgt id='56'> +5.3881346e+02 </wgt>
<wgt id='57'> +4.9274379e+02 </wgt>
<wgt id='58'> +5.2602607e+02 </wgt>
<wgt id='59'> +4.7148524e+02 </wgt>
<wgt id='60'> +5.0805707e+02 </wgt>
<wgt id='61'> +5.5762499e+02 </wgt>
<wgt id='62'> +5.2166013e+02 </wgt>
<wgt id='63'> +5.0441275e+02 </wgt>
<wgt id='64'> +5.0314525e+02 </wgt>
<wgt id='65'> +5.0515674e+02 </wgt>
<wgt id='66'> +5.2040187e+02 </wgt>
<wgt id='67'> +5.1038924e+02 </wgt>
<wgt id='68'> +4.2663654e+02 </wgt>
<wgt id='69'> +4.7588259e+02 </wgt>
<wgt id='70'> +4.9128806e+02 </wgt>
<wgt id='71'> +5.2062262e+02 </wgt>
<wgt id='72'> +5.3306234e+02 </wgt>
<wgt id='73'> +5.2078415e+02 </wgt>
<wgt id='74'> +4.5171624e+02 </wgt>
<wgt id='75'> +4.7767240e+02 </wgt>
<wgt id='76'> +5.2858583e+02 </wgt>
<wgt id='77'> +5.2338132e+02 </wgt>
<wgt id='78'> +5.3896103e+02 </wgt>
<wgt id='79'> +5.0863226e+02 </wgt>
<wgt id='80'> +5.5157707e+02 </wgt>
<wgt id='81'> +5.1091204e+02 </wgt>
<wgt id='82'> +5.0786174e+02 </wgt>
<wgt id='83'> +4.9234456e+02 </wgt>
<wgt id='84'> +5.0050978e+02 </wgt>
<wgt id='85'> +5.0296882e+02 </wgt>
<wgt id='86'> +4.9394400e+02 </wgt>
<wgt id='87'> +5.0875096e+02 </wgt>
<wgt id='88'> +5.0822744e+02 </wgt>
<wgt id='89'> +5.0338421e+02 </wgt>
<wgt id='90'> +5.3582598e+02 </wgt>
<wgt id='91'> +4.8114585e+02 </wgt>
<wgt id='92'> +5.4287836e+02 </wgt>
<wgt id='93'> +4.8766478e+02 </wgt>
<wgt id='94'> +5.0704761e+02 </wgt>
<wgt id='95'> +5.0000927e+02 </wgt>
<wgt id='96'> +4.8724803e+02 </wgt>
<wgt id='97'> +5.2660360e+02 </wgt>
<wgt id='98'> +5.1280572e+02 </wgt>
<wgt id='99'> +5.3376644e+02 </wgt>
<wgt id='100'> +5.5511916e+02 </wgt>
<wgt id='101'> +4.3512614e+02 </wgt>
<wgt id='102'> +4.6662878e+02 </wgt>
<wgt id='103'> +4.7946887e+02 </wgt>
<wgt id='104'> +4.8769068e+02 </wgt>
<wgt id='105'> +5.0602368e+02 </wgt>
<wgt id='106'> +5.4402605e+02 </wgt>
<wgt id='107'> +5.0619800e+02 </wgt>
<wgt id='108'> +5.6957053e+02 </wgt>
<wgt id='109'> +5.2923970e+02 </wgt>
<wgt id='110'> +5.2463047e+02 </wgt>
<wgt id='111'> +5.3399822e+02 </wgt>
<wgt id='112'> +5.2301773e+02 </wgt>
<wgt id='113'> +5.0802077e+02 </wgt>
<wgt id='114'> +5.1139746e+02 </wgt>
<wgt id='115'> +5.3689379e+02 </wgt>
<wgt id='116'> +4.7346992e+02 </wgt>
<wgt id='117'> +5.0567058e+02 </wgt>
<wgt id='118'> +4.7174449e+02 </wgt>
<wgt id='119'> +5.0358187e+02 </wgt>
<wgt id='120'> +5.0738643e+02 </wgt>
<wgt id='121'> +5.0737215e+02 </wgt>
<wgt id='122'> +5.2156107e+02 </wgt>
<wgt id='123'> +5.4212719e+02 </wgt>
<wgt id='124'> +4.6133083e+02 </wgt>
<wgt id='125'> +4.3278177e+02 </wgt>
<wgt id='126'> +5.0065126e+02 </wgt>
<wgt id='127'> +4.9317140e+02 </wgt>
<wgt id='128'> +5.1781125e+02 </wgt>
<wgt id='129'> +4.7279409e+02 </wgt>
<wgt id='130'> +4.9773307e+02 </wgt>
<wgt id='131'> +4.9785884e+02 </wgt>
<wgt id='132'> +4.6918012e+02 </wgt>
<wgt id='133'> +4.8176632e+02 </wgt>
<wgt id='134'> +4.9876989e+02 </wgt>
<wgt id='135'> +4.9712669e+02 </wgt>
<wgt id='136'> +4.7934387e+02 </wgt>
<wgt id='137'> +5.2131103e+02 </wgt>
<wgt id='138'> +5.1586576e+02 </wgt>
<wgt id='139'> +4.8714228e+02 </wgt>
<wgt id='140'> +4.9956307e+02 </wgt>
<wgt id='141'> +4.7865249e+02 </wgt>
<wgt id='142'> +5.6650802e+02 </wgt>
<wgt id='143'> +5.2053573e+02 </wgt>
<wgt id='144'> +5.4188970e+02 </wgt>
<wgt id='145'> +5.1891728e+02 </wgt>
</rwgt>
</event>
<event>
 4      1 +5.0481800e+02 2.86185200e+02 7.54677100e-03 1.09235800e-01
       21 -1    0    0  501  502 +0.0000000000e+00 +0.0000000000e+00 +1.4566479627e+02 1.4566479627e+02 0.0000000000e+00 0.0000e+00 1.0000e+00
       21 -1    0    0  502  503 -0.0000000000e+00 -0.0000000000e+00 -7.7882658393e+02 7.7882658393e+02 0.0000000000e+00 0.0000e+00 1.0000e+00
        6  1    1    2  501    0 +1.2544714009e+02 +1.9035753650e+02 -7.2830767846e+01 2.9530712386e+02 1.7300000000e+02 0.0000e+00 1.0000e+00
       -6  1    1    2    0  503 -1.2544714009e+02 -1.9035753650e+02 -5.6033101982e+02 6.2918425634e+02 1.7300000000e+02 0.0000e+00 1.0000e+00
<mgrwt>
<rscale>  2 0.28618521E+03</rscale>
<asrwt>0</asrwt>
<pdfrwt beam="1">  1       21 0.22409968E-01 0.28618521E+03</pdfrwt>
<pdfrwt beam="2">  1       21 0.11981948E+00 0.28618521E+03</pdfrwt>
<totfact> 0.93317588E+03</totfact>
</mgrwt>
<rwgt>
<wgt id='1'> +6.6774536e+02 </wgt>
<wgt id='2'> +5.2481720e+02 </wgt>
<wgt id='3'> +5.0481800e+02 </wgt>
<wgt id='4'> +6.6774536e+02 </wgt>
<wgt id='5'> +4.7392018e+02 </wgt>
<wgt id='6'> +6.0664234e+02 </wgt>
<wgt id='7'> +4.7542876e+02 </wgt>
<wgt id='8'> +4.5749660e+02 </wgt>
<wgt id='9'> +6.0664234e+02 </wgt>
<wgt id='10'> +4.2978951e+02 </wgt>
<wgt id='11'> +5.4977597e+02 </wgt>
<wgt id='12'> +4.3198464e+02 </wgt>
<wgt id='13'> +4.1588014e+02 </wgt>
<wgt id='14'> +5.4977597e+02 </wgt>
<wgt id='15'> +3.9098998e+02 </wgt>
<wgt id='16'> +5.5566494e+02 </wgt>
<wgt id='17'> +4.4456004e+02 </wgt>
<wgt id='18'> +4.2845424e+02 </wgt>
<wgt id='19'> +5.5566493e+02 </wgt>
<wgt id='20'> +4.0347875e+02 </wgt>
<wgt id='21'> +4.0272428e+02 </wgt>
<wgt id='22'> +3.8829114e+02 </wgt>
<wgt id='23'> +5.0481800e+02 </wgt>
<wgt id='24'> +3.6590747e+02 </wgt>
<wgt id='25'> +4.5749660e+02 </wgt>
<wgt id='26'> +3.6592381e+02 </wgt>
<wgt id='27'> +3.5297000e+02 </wgt>
<wgt id='28'> +4.5749660e+02 </wgt>
<wgt id='29'> +3.3287493e+02 </wgt>
<wgt id='30'> +4.7160956e+02 </wgt>
<wgt id='31'> +3.8139940e+02 </wgt>
<wgt id='32'> +3.6819069e+02 </wgt>
<wgt id='33'> +4.7160956e+02 </wgt>
<wgt id='34'> +3.4764957e+02 </wgt>
<wgt id='35'> +4.2845424e+02 </wgt>
<wgt id='36'> +3.4550743e+02 </wgt>
<wgt id='37'> +3.3367667e+02 </wgt>
<wgt id='38'> +4.2845424e+02 </wgt>
<wgt id='39'> +3.1527702e+02 </wgt>
<wgt id='40'> +3.8829114e+02 </wgt>
<wgt id='41'> +3.1393537e+02 </wgt>
<wgt id='42'> +3.0332357e+02 </wgt>
<wgt id='43'> +3.8829114e+02 </wgt>
<wgt id='44'> +2.8681518e+02 </wgt>
<wgt id='45'> +5.0481800e+02 </wgt>
<wgt id='46'> +5.2064891e+02 </wgt>
<wgt id='47'> +5.2418206e+02 </wgt>
<wgt id='48'> +5.1026683e+02 </wgt>
<wgt id='49'> +4.8948648e+02 </wgt>
<wgt id='50'> +6.1652677e+02 </wgt>
<wgt id='51'> +4.8834611e+02 </wgt>
<wgt id='52'> +4.9831204e+02 </wgt>
<wgt id='53'> +4.9798929e+02 </wgt>
<wgt id='54'> +5.1876772e+02 </wgt>
<wgt id='55'> +4.9087664e+02 </wgt>
<wgt id='56'> +4.5963516e+02 </wgt>
<wgt id='57'> +5.1225620e+02 </wgt>
<wgt id='58'> +4.8149821e+02 </wgt>
<wgt id='59'> +5.3176227e+02 </wgt>
<wgt id='60'> +5.0457777e+02 </wgt>
<wgt id='61'> +4.3633065e+02 </wgt>
<wgt id='62'> +4.8997182e+02 </wgt>
<wgt id='63'> +5.1187773e+02 </wgt>
<wgt id='64'> +4.9428360e+02 </wgt>
<wgt id='65'> +5.4751879e+02 </wgt>
<wgt id='66'> +4.9985304e+02 </wgt>
<wgt id='67'> +5.0748257e+02 </wgt>
<wgt id='68'> +5.7152143e+02 </wgt>
<wgt id='69'> +5.1869437e+02 </wgt>
<wgt id='70'> +5.0451816e+02 </wgt>
<wgt id='71'> +5.0212443e+02 </wgt>
<wgt id='72'> +4.7259205e+02 </wgt>
<wgt id='73'> +4.7849771e+02 </wgt>
<wgt id='74'> +5.4668318e+02 </wgt>
<wgt id='75'> +5.2346690e+02 </wgt>
<wgt id='76'> +5.0122632e+02 </wgt>
<wgt id='77'> +4.9324040e+02 </wgt>
<wgt id='78'> +4.6927937e+02 </wgt>
<wgt id='79'> +5.0774187e+02 </wgt>
<wgt id='80'> +4.8086341e+02 </wgt>
<wgt id='81'> +4.9790227e+02 </wgt>
<wgt id='82'> +4.9218197e+02 </wgt>
<wgt id='83'> +5.1174099e+02 </wgt>
<wgt id='84'> +5.3761004e+02 </wgt>
<wgt id='85'> +5.0330916e+02 </wgt>
<wgt id='86'> +5.1443539e+02 </wgt>
<wgt id='87'> +5.0768589e+02 </wgt>
<wgt id='88'> +5.0687259e+02 </wgt>
<wgt id='89'> +4.9696787e+02 </wgt>
<wgt id='90'> +5.0712427e+02 </wgt>
<wgt id='91'> +5.0160060e+02 </wgt>
<wgt id='92'> +4.5371605e+02 </wgt>
<wgt id='93'> +5.0561149e+02 </wgt>
<wgt id='94'> +4.8119752e+02 </wgt>
<wgt id='95'> +5.0327231e+02 </wgt>
<wgt id='96'> +5.4461361e+02 </wgt>
<wgt id='97'> +4.8888251e+02 </wgt>
<wgt id='98'> +5.0373798e+02 </wgt>
<wgt id='99'> +4.6462571e+02 </wgt>
<wgt id='100'> +4.4567852e+02 </wgt>
<wgt id='101'> +5.7268579e+02 </wgt>
<wgt id='102'> +5.3637713e+02 </wgt>
<wgt id='103'> +5.3501690e+02 </wgt>
<wgt id='104'> +5.1944369e+02 </wgt>
<wgt id='105'> +5.1748428e+02 </wgt>
<wgt id='106'> +4.5845704e+02 </wgt>
<wgt id='107'> +4.7453460e+02 </wgt>
<wgt id='108'> +4.4422498e+02 </wgt>
<wgt id='109'> +4.7616844e+02 </wgt>
<wgt id='110'> +4.9074814e+02 </wgt>
<wgt id='111'> +4.8937989e+02 </wgt>
<wgt id='112'> +4.8495103e+02 </wgt>
<wgt id='113'> +4.7504980e+02 </wgt>
<wgt id='114'> +4.9544952e+02 </wgt>
<wgt id='115'> +4.7272109e+02 </wgt>
<wgt id='116'> +5.3569425e+02 </wgt>
<wgt id='117'> +4.9680300e+02 </wgt>
<wgt id='118'> +5.3384049e+02 </wgt>
<wgt id='119'> +5.0175797e+02 </wgt>
<wgt id='120'> +4.9631958e+02 </wgt>
<wgt id='121'> +4.9409072e+02 </wgt>
<wgt id='122'> +4.9747400e+02 </wgt>
<wgt id='123'> +5.0631086e+02 </wgt>
<wgt id='124'> +5.6915438e+02 </wgt>
<wgt id='125'> +5.8391969e+02 </wgt>
<wgt id='126'> +5.1829745e+02 </wgt>
<wgt id='127'> +5.1312700e+02 </wgt>
<wgt id='128'> +4.6169209e+02 </wgt>
<wgt id='129'> +5.5845230e+02 </wgt>
<wgt id='130'> +4.9953902e+02 </wgt>
<wgt id='131'> +5.1351901e+02 </wgt>
<wgt id='132'> +5.3713992e+02 </wgt>
<wgt id='133'> +5.2965178e+02 </wgt>
<wgt id='134'> +4.9826302e+02 </wgt>
<wgt id='135'> +5.0546276e+02 </wgt>
<wgt id='136'> +5.3823746e+02 </wgt>
<wgt id='137'> +4.9409714e+02 </wgt>
<wgt id='138'> +4.8966901e+02 </wgt>
<wgt id='139'> +5.2173937e+02 </wgt>
<wgt id='140'> +5.1186308e+02 </wgt>
<wgt id='141'> +5.2660681e+02 </wgt>
<wgt id='142'> +4.4808615e+02 </wgt>
<wgt id='143'> +5.1643149e+02 </wgt>
<wgt id='144'> +4.8278531e+02 </wgt>
<wgt id='145'> +4.9349710e+02 </wgt>
</rwgt>
</event>
<event>
 4      1 +5.0481800e+02 2.04373400e+02 7.54677100e-03 1.14610100e-01
       21 -1    0    0  503  502 +0.0000000000e+00 +0.0000000000e+00 +3.0261133015e+02 3.0261133015e+02 0.0000000000e+00 0.0000e+00 1.0000e+00
       21 -1    0    0  501  503 -0.0000000000e+00 -0.0000000000e+00 -7.3224768621e+02 7.3224768621e+02 0.0000000000e+00 0.0000e+00 1.0000e+00
        6  1    1    2  501    0 +1.0053614884e+02 -4.1616708081e+01 -6.8093647572e+02 7.1094511151e+02 1.7300000000e+02 0.0000e+00 1.0000e+00
       -6  1    1    2    0  502 -1.0053614884e+02 +4.1616708081e+01 +2.5130011966e+02 3.2391390485e+02 1.7300000000e+02 0.0000e+00 1.0000e+00
<mgrwt>
<rscale>  2 0.20437335E+03</rscale>
<asrwt>0</asrwt>
<pdfrwt beam="1">  1       21 0.46555590E-01 0.20437335E+03</pdfrwt>
<pdfrwt beam="2">  1       21 0.11265349E+00 0.20437335E+03</pdfrwt>
<totfact> 0.26959183E+03</totfact>
</mgrwt>
<rwgt>
<wgt id='1'> +6.8942634e+02 </wgt>
<wgt id='2'> +6.3890350e+02 </wgt>
<wgt id='3'> +5.0481800e+02 </wgt>
<wgt id='4'> +6.8942633e+02 </wgt>
<wgt id='5'> +3.5672875e+02 </wgt>
<wgt id='6'> +6.1756059e+02 </wgt>
<wgt id='7'> +5.7029007e+02 </wgt>
<wgt id='8'> +4.4784702e+02 </wgt>
<wgt id='9'> +6.1756059e+02 </wgt>
<wgt id='10'> +3.1841796e+02 </wgt>
<wgt id='11'> +5.4786611e+02 </wgt>
<wgt id='12'> +5.0660770e+02 </wgt>
<wgt id='13'> +3.9934715e+02 </wgt>
<wgt id='14'> +5.4786610e+02 </wgt>
<wgt id='15'> +2.8561701e+02 </wgt>
<wgt id='16'> +5.6356385e+02 </wgt>
<wgt id='17'> +5.2697940e+02 </wgt>
<wgt id='18'> +4.2562007e+02 </wgt>
<wgt id='19'> +5.6356385e+02 </wgt>
<wgt id='20'> +3.0553959e+02 </wgt>
<wgt id='21'> +4.7038578e+02 </wgt>
<wgt id='22'> +3.7758693e+02 </wgt>
<wgt id='23'> +5.0481800e+02 </wgt>
<wgt id='24'> +2.7272625e+02 </wgt>
<wgt id='25'> +4.4784702e+02 </wgt>
<wgt id='26'> +4.1785939e+02 </wgt>
<wgt id='27'> +3.3669592e+02 </wgt>
<wgt id='28'> +4.4784702e+02 </wgt>
<wgt id='29'> +2.4463211e+02 </wgt>
<wgt id='30'> +4.7514963e+02 </wgt>
<wgt id='31'> +4.4573878e+02 </wgt>
<wgt id='32'> +3.6364223e+02 </wgt>
<wgt id='33'> +4.7514963e+02 </wgt>
<wgt id='34'> +2.6462776e+02 </wgt>
<wgt id='35'> +4.2562007e+02 </wgt>
<wgt id='36'> +3.9786979e+02 </wgt>
<wgt id='37'> +3.2260357e+02 </wgt>
<wgt id='38'> +4.2562007e+02 </wgt>
<wgt id='39'> +2.3620813e+02 </wgt>
<wgt id='40'> +3.7758694e+02 </wgt>
<wgt id='41'> +3.5344101e+02 </wgt>
<wgt id='42'> +2.8766702e+02 </wgt>
<wgt id='43'> +3.7758693e+02 </wgt>
<wgt id='44'> +2.1187580e+02 </wgt>
<wgt id='45'> +5.0481800e+02 </wgt>
<wgt id='46'> +5.2743377e+02 </wgt>
<wgt id='47'> +5.2960261e+02 </wgt>
<wgt id='48'> +5.1543405e+02 </wgt>
<wgt id='49'> +4.9236646e+02 </wgt>
<wgt id='50'> +6.4525293e+02 </wgt>
<wgt id='51'> +4.8947090e+02 </wgt>
<wgt id='52'> +5.0303195e+02 </wgt>
<wgt id='53'> +4.9235375e+02 </wgt>
<wgt id='54'> +5.1655737e+02 </wgt>
<wgt id='55'> +4.7628584e+02 </wgt>
<wgt id='56'> +4.4793193e+02 </wgt>
<wgt id='57'> +5.0732374e+02 </wgt>
<wgt id='58'> +4.7933820e+02 </wgt>
<wgt id='59'> +5.3605904e+02 </wgt>
<wgt id='60'> +5.1004285e+02 </wgt>
<wgt id='61'> +4.2449996e+02 </wgt>
<wgt id='62'> +4.9384436e+02 </wgt>
<wgt id='63'> +5.0970318e+02 </wgt>
<wgt id='64'> +4.8651290e+02 </wgt>
<wgt id='65'> +5.6264006e+02 </wgt>
<wgt id='66'> +4.9864455e+02 </wgt>
<wgt id='67'> +5.0768022e+02 </wgt>
<wgt id='68'> +5.7789621e+02 </wgt>
<wgt id='69'> +5.2307874e+02 </wgt>
<wgt id='70'> +4.9845071e+02 </wgt>
<wgt id='71'> +5.0549278e+02 </wgt>
<wgt id='72'> +4.6035583e+02 </wgt>
<wgt id='73'> +4.7835018e+02 </wgt>
<wgt id='74'> +5.5220141e+02 </wgt>
<wgt id='75'> +5.2387104e+02 </wgt>
<wgt id='76'> +4.9539801e+02 </wgt>
<wgt id='77'> +4.9782262e+02 </wgt>
<wgt id='78'> +4.6657201e+02 </wgt>
<wgt id='79'> +5.0688288e+02 </wgt>
<wgt id='80'> +4.8161088e+02 </wgt>
<wgt id='81'> +4.9180641e+02 </wgt>
<wgt id='82'> +4.9116222e+02 </wgt>
<wgt id='83'> +5.1787620e+02 </wgt>
<wgt id='84'> +5.4979668e+02 </wgt>
<wgt id='85'> +5.1174096e+02 </wgt>
<wgt id='86'> +5.1702921e+02 </wgt>
<wgt id='87'> +5.1135844e+02 </wgt>
<wgt id='88'> +5.1107922e+02 </wgt>
<wgt id='89'> +5.0919506e+02 </wgt>
<wgt id='90'> +5.1372498e+02 </wgt>
<wgt id='91'> +5.0892343e+02 </wgt>
<wgt id='92'> +4.3632217e+02 </wgt>
<wgt id='93'> +5.0863473e+02 </wgt>
<wgt id='94'> +4.7879772e+02 </wgt>
<wgt id='95'> +4.9424422e+02 </wgt>
<wgt id='96'> +5.5988822e+02 </wgt>
<wgt id='97'> +4.8913566e+02 </wgt>
<wgt id='98'> +4.9871888e+02 </wgt>
<wgt id='99'> +4.6631522e+02 </wgt>
<wgt id='100'> +4.4252118e+02 </wgt>
<wgt id='101'> +5.8729792e+02 </wgt>
<wgt id='102'> +5.4351112e+02 </wgt>
<wgt id='103'> +5.5080499e+02 </wgt>
<wgt id='104'> +5.2015644e+02 </wgt>
<wgt id='105'> +5.1382270e+02 </wgt>
<wgt id='106'> +4.4090870e+02 </wgt>
<wgt id='107'> +4.6256217e+02 </wgt>
<wgt id='108'> +4.2646266e+02 </wgt>
<wgt id='109'> +4.6412011e+02 </wgt>
<wgt id='110'> +4.9202136e+02 </wgt>
<wgt id='111'> +4.8353874e+02 </wgt>
<wgt id='112'> +4.7217793e+02 </wgt>
<wgt id='113'> +4.6071807e+02 </wgt>
<wgt id='114'> +4.8080605e+02 </wgt>
<wgt id='115'> +4.6199635e+02 </wgt>
<wgt id='116'> +5.4402534e+02 </wgt>
<wgt id='117'> +4.9371033e+02 </wgt>
<wgt id='118'> +5.4568171e+02 </wgt>
<wgt id='119'> +4.9118701e+02 </wgt>
<wgt id='120'> +4.8661501e+02 </wgt>
<wgt id='121'> +4.8856284e+02 </wgt>
<wgt id='122'> +4.9566591e+02 </wgt>
<wgt id='123'> +5.1171663e+02 </wgt>
<wgt id='124'> +5.8373610e+02 </wgt>
<wgt id='125'> +5.9241512e+02 </wgt>
<wgt id='126'> +5.2694215e+02 </wgt>
<wgt id='127'> +5.2159051e+02 </wgt>
<wgt id='128'> +4.5019843e+02 </wgt>
<wgt id='129'> +5.7219078e+02 </wgt>
<wgt id='130'> +5.0411301e+02 </wgt>
<wgt id='131'> +5.2185447e+02 </wgt>
<wgt id='132'> +5.4170221e+02 </wgt>
<wgt id='133'> +5.3462167e+02 </wgt>
<wgt id='134'> +4.9322468e+02 </wgt>
<wgt id='135'> +5.0958991e+02 </wgt>
<wgt id='136'> +5.3501650e+02 </wgt>
<wgt id='137'> +4.9085856e+02 </wgt>
<wgt id='138'> +4.9128402e+02 </wgt>
<wgt id='139'> +5.2712611e+02 </wgt>
<wgt id='140'> +5.1298653e+02 </wgt>
<wgt id='141'> +5.2367478e+02 </wgt>
<wgt id='142'> +4.5080725e+02 </wgt>
<wgt id='143'> +5.1937491e+02 </wgt>
<wgt id='144'> +4.8072898e+02 </wgt>
<wgt id='145'> +4.9689549e+02 </wgt>
</rwgt>
</event>
<event>
 4      1 +5.0481800e+02 2.92611200e+02 7.54677100e-03 1.08899400e-01
       21 -1    0    0  501  502 +0.0000000000e+00 +0.0000000000e+00 +1.4794494320e+02 1.4794494320e+02 0.0000000000e+00 0.0000e+00 -1.0000e+00
       21 -1    0    0  502  503 -0.0000000000e+00 -0.0000000000e+00 -8.8577335890e+02 8.8577335890e+02 0.0000000000e+00 0.0000e+00 -1.0000e+00
        6  1    1    2  501    0 +7.1886143904e+01 +2.2477695276e+02 -6.4611787301e+01 2.9965977247e+02 1.7300000000e+02 0.0000e+00 -1.0000e+00
       -6  1    1    2    0  503 -7.1886143904e+01 -2.2477695276e+02 -6.7321662839e+02 7.3405852963e+02 1.7300000000e+02 0.0000e+00 -1.0000e+00
<mgrwt>
<rscale>  2 0.29261117E+03</rscale>
<asrwt>0</asrwt>
<pdfrwt beam="1">  1       21 0.22760760E-01 0.29261117E+03</pdfrwt>
<pdfrwt beam="2">  1       21 0.13627283E+00 0.29261117E+03</pdfrwt>
<totfact> 0.65045719E+03</totfact>
</mgrwt>
<rwgt>
<wgt id='1'> +6.7286896e+02 </wgt>
<wgt id='2'> +5.2464958e+02 </wgt>
<wgt id='3'> +5.0481800e+02 </wgt>
<wgt id='4'> +6.7286896e+02 </wgt>
<wgt id='5'> +4.6389970e+02 </wgt>
<wgt id='6'> +6.0595648e+02 </wgt>
<wgt id='7'> +4.7173108e+02 </wgt>
<wgt id='8'> +4.5412180e+02 </wgt>
<wgt id='9'> +6.0595648e+02 </wgt>
<wgt id='10'> +4.1777633e+02 </wgt>
<wgt id='11'> +5.4510348e+02 </wgt>
<wgt id='12'> +4.2571148e+02 </wgt>
<wgt id='13'> +4.1003521e+02 </wgt>
<wgt id='14'> +5.4510348e+02 </wgt>
<wgt id='15'> +3.7766260e+02 </wgt>
<wgt id='16'> +5.6056231e+02 </wgt>
<wgt id='17'> +4.4464322e+02 </wgt>
<wgt id='18'> +4.2863861e+02 </wgt>
<wgt id='19'> +5.6056231e+02 </wgt>
<wgt id='20'> +3.9547621e+02 </wgt>
<wgt id='21'> +3.9979452e+02 </wgt>
<wgt id='22'> +3.8559271e+02 </wgt>
<wgt id='23'> +5.0481800e+02 </wgt>
<wgt id='24'> +3.5615586e+02 </wgt>
<wgt id='25'> +4.5412180e+02 </wgt>
<wgt id='26'> +3.6079267e+02 </wgt>
<wgt id='27'> +3.4815899e+02 </wgt>
<wgt id='28'> +4.5412180e+02 </wgt>
<wgt id='29'> +3.2195876e+02 </wgt>
<wgt id='30'> +4.7597084e+02 </wgt>
<wgt id='31'> +3.8163485e+02 </wgt>
<wgt id='32'> +3.6848496e+02 </wgt>
<wgt id='33'> +4.7597084e+02 </wgt>
<wgt id='34'> +3.4114616e+02 </wgt>
<wgt id='35'> +4.2863861e+02 </wgt>
<wgt id='36'> +3.4314145e+02 </wgt>
<wgt id='37'> +3.3147997e+02 </wgt>
<wgt id='38'> +4.2863861e+02 </wgt>
<wgt id='39'> +3.0722760e+02 </wgt>
<wgt id='40'> +3.8559271e+02 </wgt>
<wgt id='41'> +3.0966638e+02 </wgt>
<wgt id='42'> +2.9929957e+02 </wgt>
<wgt id='43'> +3.8559271e+02 </wgt>
<wgt id='44'> +2.7772845e+02 </wgt>
<wgt id='45'> +5.0481800e+02 </wgt>
<wgt id='46'> +5.2209617e+02 </wgt>
<wgt id='47'> +5.2457369e+02 </wgt>
<wgt id='48'> +5.0992969e+02 </wgt>
<wgt id='49'> +4.8447274e+02 </wgt>
<wgt id='50'> +6.1863114e+02 </wgt>
<wgt id='51'> +4.8549605e+02 </wgt>
<wgt id='52'> +4.9411368e+02 </wgt>
<wgt id='53'> +4.9837174e+02 </wgt>
<wgt id='54'> +5.2272686e+02 </wgt>
<wgt id='55'> +5.0329709e+02 </wgt>
<wgt id='56'> +4.6138009e+02 </wgt>
<wgt id='57'> +5.1732552e+02 </wgt>
<wgt id='58'> +4.7495475e+02 </wgt>
<wgt id='59'> +5.3705532e+02 </wgt>
<wgt id='60'> +5.0530933e+02 </wgt>
<wgt id='61'> +4.3894907e+02 </wgt>
<wgt id='62'> +4.8558780e+02 </wgt>
<wgt id='63'> +5.1556763e+02 </wgt>
<wgt id='64'> +4.9538102e+02 </wgt>
<wgt id='65'> +5.3353340e+02 </wgt>
<wgt id='66'> +5.0193111e+02 </wgt>
<wgt id='67'> +5.0731354e+02 </wgt>
<wgt id='68'> +5.8057821e+02 </wgt>
<wgt id='69'> +5.2553890e+02 </wgt>
<wgt id='70'> +5.1004145e+02 </wgt>
<wgt id='71'> +4.9657112e+02 </wgt>
<wgt id='72'> +4.6864569e+02 </wgt>
<wgt id='73'> +4.7275463e+02 </wgt>
<wgt id='74'> +5.5390316e+02 </wgt>
<wgt id='75'> +5.2776241e+02 </wgt>
<wgt id='76'> +5.0446040e+02 </wgt>
<wgt id='77'> +4.9124879e+02 </wgt>
<wgt id='78'> +4.6117517e+02 </wgt>
<wgt id='79'> +5.1373624e+02 </wgt>
<wgt id='80'> +4.7415391e+02 </wgt>
<wgt id='81'> +5.0108467e+02 </wgt>
<wgt id='82'> +4.8979791e+02 </wgt>
<wgt id='83'> +5.1000725e+02 </wgt>
<wgt id='84'> +5.3116504e+02 </wgt>
<wgt id='85'> +4.9460627e+02 </wgt>
<wgt id='86'> +5.1782337e+02 </wgt>
<wgt id='87'> +5.0660380e+02 </wgt>
<wgt id='88'> +5.0454374e+02 </wgt>
<wgt id='89'> +4.8585758e+02 </wgt>
<wgt id='90'> +5.0152608e+02 </wgt>
<wgt id='91'> +4.9018693e+02 </wgt>
<wgt id='92'> +4.5392333e+02 </wgt>
<wgt id='93'> +5.0688187e+02 </wgt>
<wgt id='94'> +4.7622452e+02 </wgt>
<wgt id='95'> +5.0856183e+02 </wgt>
<wgt id='96'> +5.4339430e+02 </wgt>
<wgt id='97'> +4.8237367e+02 </wgt>
<wgt id='98'> +5.1054429e+02 </wgt>
<wgt id='99'> +4.5595961e+02 </wgt>
<wgt id='100'> +4.3159629e+02 </wgt>
<wgt id='101'> +5.7976364e+02 </wgt>
<wgt id='102'> +5.4541503e+02 </wgt>
<wgt id='103'> +5.2698097e+02 </wgt>
<wgt id='104'> +5.2448397e+02 </wgt>
<wgt id='105'> +5.1676001e+02 </wgt>
<wgt id='106'> +4.6121227e+02 </wgt>
<wgt id='107'> +4.7346997e+02 </wgt>
<wgt id='108'> +4.4650608e+02 </wgt>
<wgt id='109'> +4.7908341e+02 </wgt>
<wgt id='110'> +4.8527846e+02 </wgt>
<wgt id='111'> +4.8928048e+02 </wgt>
<wgt id='112'> +4.9136189e+02 </wgt>
<wgt id='113'> +4.8243187e+02 </wgt>
<wgt id='114'> +4.9897017e+02 </wgt>
<wgt id='115'> +4.6914319e+02 </wgt>
<wgt id='116'> +5.4182513e+02 </wgt>
<wgt id='117'> +4.9537489e+02 </wgt>
<wgt id='118'> +5.3401283e+02 </wgt>
<wgt id='119'> +5.0988440e+02 </wgt>
<wgt id='120'> +4.9848711e+02 </wgt>
<wgt id='121'> +4.9477750e+02 </wgt>
<wgt id='122'> +4.9674949e+02 </wgt>
<wgt id='123'> +5.0308474e+02 </wgt>
<wgt id='124'> +5.7314277e+02 </wgt>
<wgt id='125'> +5.9574803e+02 </wgt>
<wgt id='126'> +5.1478393e+02 </wgt>
<wgt id='127'> +5.0850750e+02 </wgt>
<wgt id='128'> +4.6456502e+02 </wgt>
<wgt id='129'> +5.5211586e+02 </wgt>
<wgt id='130'> +4.9644695e+02 </wgt>
<wgt id='131'> +5.0432927e+02 </wgt>
<wgt id='132'> +5.4231834e+02 </wgt>
<wgt id='133'> +5.3543423e+02 </wgt>
<wgt id='134'> +5.0411458e+02 </wgt>
<wgt id='135'> +5.0108770e+02 </wgt>
<wgt id='136'> +5.5084229e+02 </wgt>
<wgt id='137'> +5.0021224e+02 </wgt>
<wgt id='138'> +4.9666905e+02 </wgt>
<wgt id='139'> +5.2214740e+02 </wgt>
<wgt id='140'> +5.0716369e+02 </wgt>
<wgt id='141'> +5.3521517e+02 </wgt>
<wgt id='142'> +4.2928011e+02 </wgt>
<wgt id='143'> +5.1759322e+02 </wgt>
<wgt id='144'> +4.7683570e+02 </wgt>
<wgt id='145'> +4.8800359e+02 </wgt>
</rwgt>
</event>
<event>
 4      1 +5.0481800e+02 1.89707200e+02 7.54677100e-03 1.15872600e-01
       21 -1    0    0  501  502 +0.0000000000e+00 +0.0000000000e+00 +7.5000550539e+01 7.5000550539e+01 0.0000000000e+00 0.0000e+00 1.0000e+00
       21 -1    0    0  502  503 -0.0000000000e+00 -0.0000000000e+00 -7.2740627296e+02 7.2740627296e+02 0.0000000000e+00 0.0000e+00 1.0000e+00
        6  1    1    2  501    0 -1.1292866318e+01 -7.7021368754e+01 -9.2149256367e+01 2.1090354554e+02 1.7300000000e+02 0.0000e+00 1.0000e+00
       -6  1    1    2    0  503 +1.1292866318e+01 +7.7021368754e+01 -5.6025646605e+02 5.9150327795e+02 1.7300000000e+02 0.0000e+00 1.0000e+00
<mgrwt>
<rscale>  2 0.18970720E+03</rscale>
<asrwt>0</asrwt>
<pdfrwt beam="1">  1       21 0.11538546E-01 0.18970720E+03</pdfrwt>
<pdfrwt beam="2">  1       21 0.11190866E+00 0.18970720E+03</pdfrwt>
<totfact> 0.39491253E+04</totfact>
</mgrwt>
<rwgt>
<wgt id='1'> +6.5837756e+02 </wgt>
<wgt id='2'> +6.2387359e+02 </wgt>
<wgt id='3'> +5.0481800e+02 </wgt>
<wgt id='4'> +6.5837756e+02 </wgt>
<wgt id='5'> +4.6764089e+02 </wgt>
<wgt id='6'> +6.1992726e+02 </wgt>
<wgt id='7'> +5.8512126e+02 </wgt>
<wgt id='8'> +4.6732428e+02 </wgt>
<wgt id='9'> +6.1992726e+02 </wgt>
<wgt id='10'> +4.3286960e+02 </wgt>
<wgt id='11'> +5.7388416e+02 </wgt>
<wgt id='12'> +5.4155057e+02 </wgt>
<wgt id='13'> +4.3275830e+02 </wgt>
<wgt id='14'> +5.7388417e+02 </wgt>
<wgt id='15'> +4.0097387e+02 </wgt>
<wgt id='16'> +5.3612878e+02 </wgt>
<wgt id='17'> +5.1177300e+02 </wgt>
<wgt id='18'> +4.2482242e+02 </wgt>
<wgt id='19'> +5.3612878e+02 </wgt>
<wgt id='20'> +3.9529951e+02 </wgt>
<wgt id='21'> +4.7998388e+02 </wgt>
<wgt id='22'> +3.9327010e+02 </wgt>
<wgt id='23'> +5.0481800e+02 </wgt>
<wgt id='24'> +3.6590713e+02 </wgt>
<wgt id='25'> +4.6732427e+02 </wgt>
<wgt id='26'> +4.4424218e+02 </wgt>
<wgt id='27'> +3.6418159e+02 </wgt>
<wgt id='28'> +4.6732428e+02 </wgt>
<wgt id='29'> +3.3894550e+02 </wgt>
<wgt id='30'> +4.5117155e+02 </wgt>
<wgt id='31'> +4.3201221e+02 </wgt>
<wgt id='32'> +3.6247249e+02 </wgt>
<wgt id='33'> +4.5117155e+02 </wgt>
<wgt id='34'> +3.3853072e+02 </wgt>
<wgt id='35'> +4.2482241e+02 </wgt>
<wgt id='36'> +4.0517747e+02 </wgt>
<wgt id='37'> +3.3555102e+02 </wgt>
<wgt id='38'> +4.2482242e+02 </wgt>
<wgt id='39'> +3.1335937e+02 </wgt>
<wgt id='40'> +3.9327010e+02 </wgt>
<wgt id='41'> +3.7500619e+02 </wgt>
<wgt id='42'> +3.1073174e+02 </wgt>
<wgt id='43'> +3.9327010e+02 </wgt>
<wgt id='44'> +2.9026968e+02 </wgt>
<wgt id='45'> +5.0481800e+02 </wgt>
<wgt id='46'> +5.1598778e+02 </wgt>
<wgt id='47'> +5.1889538e+02 </wgt>
<wgt id='48'> +5.0711008e+02 </wgt>
<wgt id='49'> +4.9305090e+02 </wgt>
<wgt id='50'> +5.9801284e+02 </wgt>
<wgt id='51'> +4.9013921e+02 </wgt>
<wgt id='52'> +5.0151839e+02 </wgt>
<wgt id='53'> +4.9846549e+02 </wgt>
<wgt id='54'> +5.1614967e+02 </wgt>
<wgt id='55'> +4.8881541e+02 </wgt>
<wgt id='56'> +4.6356852e+02 </wgt>
<wgt id='57'> +5.1155273e+02 </wgt>
<wgt id='58'> +4.9046984e+02 </wgt>
<wgt id='59'> +5.2757989e+02 </wgt>
<wgt id='60'> +5.0490175e+02 </wgt>
<wgt id='61'> +4.4182978e+02 </wgt>
<wgt id='62'> +4.9186499e+02 </wgt>
<wgt id='63'> +5.0975277e+02 </wgt>
<wgt id='64'> +4.9733845e+02 </wgt>
<wgt id='65'> +5.4826309e+02 </wgt>
<wgt id='66'> +4.9740212e+02 </wgt>
<wgt id='67'> +5.0740655e+02 </wgt>
<wgt id='68'> +5.6053364e+02 </wgt>
<wgt id='69'> +5.0697845e+02 </wgt>
<wgt id='70'> +5.0218482e+02 </wgt>
<wgt id='71'> +5.0554438e+02 </wgt>
<wgt id='72'> +4.8558806e+02 </wgt>
<wgt id='73'> +4.8505238e+02 </wgt>
<wgt id='74'> +5.3749538e+02 </wgt>
<wgt id='75'> +5.1819544e+02 </wgt>
<wgt id='76'> +5.0187408e+02 </wgt>
<wgt id='77'> +4.9381066e+02 </wgt>
<wgt id='78'> +4.7722159e+02 </wgt>
<wgt id='79'> +5.0328556e+02 </wgt>
<wgt id='80'> +4.8656751e+02 </wgt>
<wgt id='81'> +4.9808623e+02 </wgt>
<wgt id='82'> +4.9429238e+02 </wgt>
<wgt id='83'> +5.0804689e+02 </wgt>
<wgt id='84'> +5.3507971e+02 </wgt>
<wgt id='85'> +5.0669092e+02 </wgt>
<wgt id='86'> +5.0901748e+02 </wgt>
<wgt id='87'> +5.0740372e+02 </wgt>
<wgt id='88'> +5.0420744e+02 </wgt>
<wgt id='89'> +5.0269935e+02 </wgt>
<wgt id='90'> +5.1059392e+02 </wgt>
<wgt id='91'> +5.0768860e+02 </wgt>
<wgt id='92'> +4.6439435e+02 </wgt>
<wgt id='93'> +5.0299628e+02 </wgt>
<wgt id='94'> +4.8760418e+02 </wgt>
<wgt id='95'> +5.0449267e+02 </wgt>
<wgt id='96'> +5.3659085e+02 </wgt>
<wgt id='97'> +4.9445975e+02 </wgt>
<wgt id='98'> +4.9920088e+02 </wgt>
<wgt id='99'> +4.7261873e+02 </wgt>
<wgt id='100'> +4.6116947e+02 </wgt>
<wgt id='101'> +5.6023068e+02 </wgt>
<wgt id='102'> +5.2468389e+02 </wgt>
<wgt id='103'> +5.3568403e+02 </wgt>
<wgt id='104'> +5.1215134e+02 </wgt>
<wgt id='105'> +5.2127045e+02 </wgt>
<wgt id='106'> +4.6545042e+02 </wgt>
<wgt id='107'> +4.8191262e+02 </wgt>
<wgt id='108'> +4.5029445e+02 </wgt>
<wgt id='109'> +4.8009098e+02 </wgt>
<wgt id='110'> +4.9692042e+02 </wgt>
<wgt id='111'> +4.9221922e+02 </wgt>
<wgt id='112'> +4.8484077e+02 </wgt>
<wgt id='113'> +4.7543178e+02 </wgt>
<wgt id='114'> +4.9942282e+02 </wgt>
<wgt id='115'> +4.7666004e+02 </wgt>
<wgt id='116'> +5.2504682e+02 </wgt>
<wgt id='117'> +4.9790546e+02 </wgt>
<wgt id='118'> +5.2802439e+02 </wgt>
<wgt id='119'> +5.0071117e+02 </wgt>
<wgt id='120'> +4.9561558e+02 </wgt>
<wgt id='121'> +4.9810020e+02 </wgt>
<wgt id='122'> +4.9925443e+02 </wgt>
<wgt id='123'> +5.0485251e+02 </wgt>
<wgt id='124'> +5.5917033e+02 </wgt>
<wgt id='125'> +5.6973982e+02 </wgt>
<wgt id='126'> +5.1617553e+02 </wgt>
<wgt id='127'> +5.1347302e+02 </wgt>
<wgt id='128'> +4.6175294e+02 </wgt>
<wgt id='129'> +5.5878503e+02 </wgt>
<wgt id='130'> +4.9693902e+02 </wgt>
<wgt id='131'> +5.1822378e+02 </wgt>
<wgt id='132'> +5.3414906e+02 </wgt>
<wgt id='133'> +5.2233441e+02 </wgt>
<wgt id='134'> +4.9627290e+02 </wgt>
<wgt id='135'> +5.0803343e+02 </wgt>
<wgt id='136'> +5.3161136e+02 </wgt>
<wgt id='137'> +4.8776966e+02 </wgt>
<wgt id='138'> +4.7831851e+02 </wgt>
<wgt id='139'> +5.1990473e+02 </wgt>
<wgt id='140'> +5.1556677e+02 </wgt>
<wgt id='141'> +5.1893975e+02 </wgt>
<wgt id='142'> +4.6395781e+02 </wgt>
<wgt id='143'> +5.1602263e+02 </wgt>
<wgt id='144'> +4.9086215e+02 </wgt>
<wgt id='145'> +4.9625411e+02 </wgt>
</rwgt>
</event>
<event>
 4      1 +5.0481800e+02 1.76137700e+02 7.54677100e-03 1.17159400e-01
       21 -1    0    0  501  502 +0.0000000000e+00 +0.0000000000e+00 +4.0668089897e+02 4.0668089897e+02 0.0000000000e+00 0.0000e+00 -1.0000e+00
       21 -1    0    0  502  503 -0.0000000000e+00 -0.0000000000e+00 -9.6892790134e+01 9.6892790134e+01 0.0000000000e+00 0.0000e+00 -1.0000e+00
        6  1    1    2  501    0 +1.6381447735e+00 -3.3057608102e+01 +2.7100718603e+02 3.2321723941e+02 1.7300000000e+02 0.0000e+00 -1.0000e+00
       -6  1    1    2    0  503 -1.6381447735e+00 +3.3057608102e+01 +3.8780922803e+01 1.8035644969e+02 1.7300000000e+02 0.0000e+00 -1.0000e+00
<mgrwt>
<rscale>  2 0.17613770E+03</rscale>
<asrwt>0</asrwt>
<pdfrwt beam="1">  1       21 0.62566291E-01 0.17613770E+03</pdfrwt>
<pdfrwt beam="2">  1       21 0.14906583E-01 0.17613770E+03</pdfrwt>
<totfact> 0.94552792E+04</totfact>
</mgrwt>
<rwgt>
<wgt id='1'> +6.4657162e+02 </wgt>
<wgt id='2'> +6.7577144e+02 </wgt>
<wgt id='3'> +5.0481800e+02 </wgt>
<wgt id='4'> +6.4657162e+02 </wgt>
<wgt id='5'> +4.8444955e+02 </wgt>
<wgt id='6'> +6.2208407e+02 </wgt>
<wgt id='7'> +6.5170639e+02 </wgt>
<wgt id='8'> +4.7618456e+02 </wgt>
<wgt id='9'> +6.2208407e+02 </wgt>
<wgt id='10'> +4.5641500e+02 </wgt>
<wgt id='11'> +5.8679926e+02 </wgt>
<wgt id='12'> +6.1615141e+02 </wgt>
<wgt id='13'> +4.4829352e+02 </wgt>
<wgt id='14'> +5.8679926e+02 </wgt>
<wgt id='15'> +4.2964529e+02 </wgt>
<wgt id='16'> +5.2468952e+02 </wgt>
<wgt id='17'> +5.4572885e+02 </wgt>
<wgt id='18'> +4.2385057e+02 </wgt>
<wgt id='19'> +5.2468952e+02 </wgt>
<wgt id='20'> +4.0817709e+02 </wgt>
<wgt id='21'> +5.2629477e+02 </wgt>
<wgt id='22'> +3.9980963e+02 </wgt>
<wgt id='23'> +5.0481800e+02 </wgt>
<wgt id='24'> +3.8455635e+02 </wgt>
<wgt id='25'> +4.7618456e+02 </wgt>
<wgt id='26'> +4.9758184e+02 </wgt>
<wgt id='27'> +3.7639201e+02 </wgt>
<wgt id='28'> +4.7618456e+02 </wgt>
<wgt id='29'> +3.6200130e+02 </wgt>
<wgt id='30'> +4.4053491e+02 </wgt>
<wgt id='31'> +4.5608722e+02 </wgt>
<wgt id='32'> +3.6115362e+02 </wgt>
<wgt id='33'> +4.4053491e+02 </wgt>
<wgt id='34'> +3.4855606e+02 </wgt>
<wgt id='35'> +4.2385057e+02 </wgt>
<wgt id='36'> +4.3984539e+02 </wgt>
<wgt id='37'> +3.4066887e+02 </wgt>
<wgt id='38'> +4.2385057e+02 </wgt>
<wgt id='39'> +3.2838552e+02 </wgt>
<wgt id='40'> +3.9980963e+02 </wgt>
<wgt id='41'> +4.1584886e+02 </wgt>
<wgt id='42'> +3.2071524e+02 </wgt>
<wgt id='43'> +3.9980963e+02 </wgt>
<wgt id='44'> +3.0912501e+02 </wgt>
<wgt id='45'> +5.0481800e+02 </wgt>
<wgt id='46'> +5.0599808e+02 </wgt>
<wgt id='47'> +5.2038720e+02 </wgt>
<wgt id='48'> +5.0584890e+02 </wgt>
<wgt id='49'> +5.0283232e+02 </wgt>
<wgt id='50'> +5.8478569e+02 </wgt>
<wgt id='51'> +4.9496104e+02 </wgt>
<wgt id='52'> +5.0314128e+02 </wgt>
<wgt id='53'> +5.0791522e+02 </wgt>
<wgt id='54'> +5.0818835e+02 </wgt>
<wgt id='55'> +4.5876006e+02 </wgt>
<wgt id='56'> +4.6960775e+02 </wgt>
<wgt id='57'> +4.9535521e+02 </wgt>
<wgt id='58'> +5.0744711e+02 </wgt>
<wgt id='59'> +5.0295057e+02 </wgt>
<wgt id='60'> +4.8948728e+02 </wgt>
<wgt id='61'> +4.8301721e+02 </wgt>
<wgt id='62'> +4.9770928e+02 </wgt>
<wgt id='63'> +5.0531701e+02 </wgt>
<wgt id='64'> +4.9964772e+02 </wgt>
<wgt id='65'> +5.8412149e+02 </wgt>
<wgt id='66'> +4.9324190e+02 </wgt>
<wgt id='67'> +5.0899237e+02 </wgt>
<wgt id='68'> +5.4190171e+02 </wgt>
<wgt id='69'> +4.9217455e+02 </wgt>
<wgt id='70'> +4.9717430e+02 </wgt>
<wgt id='71'> +5.1389782e+02 </wgt>
<wgt id='72'> +4.9377130e+02 </wgt>
<wgt id='73'> +4.9781777e+02 </wgt>
<wgt id='74'> +5.2083814e+02 </wgt>
<wgt id='75'> +5.1477254e+02 </wgt>
<wgt id='76'> +4.9284026e+02 </wgt>
<wgt id='77'> +4.8855461e+02 </wgt>
<wgt id='78'> +5.0156964e+02 </wgt>
<wgt id='79'> +4.8727354e+02 </wgt>
<wgt id='80'> +4.9941366e+02 </wgt>
<wgt id='81'> +4.9621902e+02 </wgt>
<wgt id='82'> +5.1419365e+02 </wgt>
<wgt id='83'> +5.1259482e+02 </wgt>
<wgt id='84'> +5.4908704e+02 </wgt>
<wgt id='85'> +5.2681499e+02 </wgt>
<wgt id='86'> +5.0150291e+02 </wgt>
<wgt id='87'> +5.0536951e+02 </wgt>
<wgt id='88'> +5.1063827e+02 </wgt>
<wgt id='89'> +5.1585658e+02 </wgt>
<wgt id='90'> +5.1198082e+02 </wgt>
<wgt id='91'> +5.3274557e+02 </wgt>
<wgt id='92'> +4.6831574e+02 </wgt>
<wgt id='93'> +4.9700062e+02 </wgt>
<wgt id='94'> +5.0139756e+02 </wgt>
<wgt id='95'> +4.8857049e+02 </wgt>
<wgt id='96'> +5.4095466e+02 </wgt>
<wgt id='97'> +5.1054722e+02 </wgt>
<wgt id='98'> +4.8412297e+02 </wgt>
<wgt id='99'> +4.8941836e+02 </wgt>
<wgt id='100'> +4.9794189e+02 </wgt>
<wgt id='101'> +5.3293472e+02 </wgt>
<wgt id='102'> +4.9424281e+02 </wgt>
<wgt id='103'> +5.4569096e+02 </wgt>
<wgt id='104'> +5.0340103e+02 </wgt>
<wgt id='105'> +5.2492081e+02 </wgt>
<wgt id='106'> +4.6692431e+02 </wgt>
<wgt id='107'> +4.9730181e+02 </wgt>
<wgt id='108'> +4.5381698e+02 </wgt>
<wgt id='109'> +4.7645576e+02 </wgt>
<wgt id='110'> +5.0589566e+02 </wgt>
<wgt id='111'> +4.9251653e+02 </wgt>
<wgt id='112'> +4.8164177e+02 </wgt>
<wgt id='113'> +4.6621295e+02 </wgt>
<wgt id='114'> +5.0270037e+02 </wgt>
<wgt id='115'> +4.9959910e+02 </wgt>
<wgt id='116'> +5.0559622e+02 </wgt>
<wgt id='117'> +5.0854461e+02 </wgt>
<wgt id='118'> +5.1796654e+02 </wgt>
<wgt id='119'> +4.8785904e+02 </wgt>
<wgt id='120'> +4.9903047e+02 </wgt>
<wgt id='121'> +4.9320633e+02 </wgt>
<wgt id='122'> +4.9910651e+02 </wgt>
<wgt id='123'> +5.0927034e+02 </wgt>
<wgt id='124'> +5.4002156e+02 </wgt>
<wgt id='125'> +5.4185569e+02 </wgt>
<wgt id='126'> +5.2167785e+02 </wgt>
<wgt id='127'> +5.1856512e+02 </wgt>
<wgt id='128'> +4.6711422e+02 </wgt>
<wgt id='129'> +5.6862398e+02 </wgt>
<wgt id='130'> +5.0495572e+02 </wgt>
<wgt id='131'> +5.3714833e+02 </wgt>
<wgt id='132'> +5.0631219e+02 </wgt>
<wgt id='133'> +5.0356892e+02 </wgt>
<wgt id='134'> +4.7919791e+02 </wgt>
<wgt id='135'> +5.1657374e+02 </wgt>
<wgt id='136'> +4.9199826e+02 </wgt>
<wgt id='137'> +4.7642538e+02 </wgt>
<wgt id='138'> +4.5998250e+02 </wgt>
<wgt id='139'> +5.1514108e+02 </wgt>
<wgt id='140'> +5.3288295e+02 </wgt>
<wgt id='141'> +5.0461540e+02 </wgt>
<wgt id='142'> +5.0315379e+02 </wgt>
<wgt id='143'> +5.0408154e+02 </wgt>
<wgt id='144'> +5.0443755e+02 </wgt>
<wgt id='145'> +5.0545178e+02 </wgt>
</rwgt>
</event>
<event>
 4      1 +5.0481800e+02 1.87030200e+02 7.54677100e-03 1.16116800e-01
       21 -1    0    0  501  502 +0.0000000000e+00 +0.0000000000e+00 +4.5135368257e+01 4.5135368257e+01 0.0000000000e+00 0.0000e+00 1.0000e+00
       21 -1    0    0  502  503 -0.0000000000e+00 -0.0000000000e+00 -1.4512146373e+03 1.4512146373e+03 0.0000000000e+00 0.0000e+00 1.0000e+00
        6  1    1    2  501    0 +1.8947035532e+01 +6.8500372989e+01 -1.2137526698e+03 1.2280781061e+03 1.7300000000e+02 0.0000e+00 1.0000e+00
       -6  1    1    2    0  503 -1.8947035532e+01 -6.8500372989e+01 -1.9232659923e+02 2.6827189943e+02 1.7300000000e+02 0.0000e+00 1.0000e+00
<mgrwt>
<rscale>  2 0.18703019E+03</rscale>
<asrwt>0</asrwt>
<pdfrwt beam="1">  1       21 0.69439033E-02 0.18703019E+03</pdfrwt>
<pdfrwt beam="2">  1       21 0.22326377E+00 0.18703019E+03</pdfrwt>
<totfact> 0.14807402E+04</totfact>
</mgrwt>
<rwgt>
<wgt id='1'> +6.8745705e+02 </wgt>
<wgt id='2'> +7.2907982e+02 </wgt>
<wgt id='3'> +5.0481800e+02 </wgt>
<wgt id='4'> +6.8745705e+02 </wgt>
<wgt id='5'> +4.4195602e+02 </wgt>
<wgt id='6'> +6.2033478e+02 </wgt>
<wgt id='7'> +6.5902533e+02 </wgt>
<wgt id='8'> +4.4958772e+02 </wgt>
<wgt id='9'> +6.2033478e+02 </wgt>
<wgt id='10'> +3.9419741e+02 </wgt>
<wgt id='11'> +5.5246624e+02 </wgt>
<wgt id='12'> +5.8743434e+02 </wgt>
<wgt id='13'> +4.0191497e+02 </wgt>
<wgt id='14'> +5.5246624e+02 </wgt>
<wgt id='15'> +3.5309435e+02 </wgt>
<wgt id='16'> +5.5944097e+02 </wgt>
<wgt id='17'> +5.8994744e+02 </wgt>
<wgt id='18'> +4.2464722e+02 </wgt>
<wgt id='19'> +5.5944097e+02 </wgt>
<wgt id='20'> +3.7427586e+02 </wgt>
<wgt id='21'> +5.3326165e+02 </wgt>
<wgt id='22'> +3.7818813e+02 </wgt>
<wgt id='23'> +5.0481800e+02 </wgt>
<wgt id='24'> +3.3383089e+02 </wgt>
<wgt id='25'> +4.4958772e+02 </wgt>
<wgt id='26'> +4.7533257e+02 </wgt>
<wgt id='27'> +3.3808635e+02 </wgt>
<wgt id='28'> +4.4958772e+02 </wgt>
<wgt id='29'> +2.9902226e+02 </wgt>
<wgt id='30'> +4.7059545e+02 </wgt>
<wgt id='31'> +4.9413853e+02 </wgt>
<wgt id='32'> +3.6222950e+02 </wgt>
<wgt id='33'> +4.7059545e+02 </wgt>
<wgt id='34'> +3.2103165e+02 </wgt>
<wgt id='35'> +4.2464722e+02 </wgt>
<wgt id='36'> +4.4665866e+02 </wgt>
<wgt id='37'> +3.2259931e+02 </wgt>
<wgt id='38'> +4.2464722e+02 </wgt>
<wgt id='39'> +2.8634036e+02 </wgt>
<wgt id='40'> +3.7818813e+02 </wgt>
<wgt id='41'> +3.9813740e+02 </wgt>
<wgt id='42'> +2.8839197e+02 </wgt>
<wgt id='43'> +3.7818813e+02 </wgt>
<wgt id='44'> +2.5648358e+02 </wgt>
<wgt id='45'> +5.0481800e+02 </wgt>
<wgt id='46'> +5.1668099e+02 </wgt>
<wgt id='47'> +5.3368038e+02 </wgt>
<wgt id='48'> +5.0316642e+02 </wgt>
<wgt id='49'> +4.5762812e+02 </wgt>
<wgt id='50'> +5.9163430e+02 </wgt>
<wgt id='51'> +4.7167024e+02 </wgt>
<wgt id='52'> +4.5698150e+02 </wgt>
<wgt id='53'> +5.1652483e+02 </wgt>
<wgt id='54'> +5.3959744e+02 </wgt>
<wgt id='55'> +5.8496558e+02 </wgt>
<wgt id='56'> +4.8831550e+02 </wgt>
<wgt id='57'> +5.4037202e+02 </wgt>
<wgt id='58'> +4.4858619e+02 </wgt>
<wgt id='59'> +5.4855207e+02 </wgt>
<wgt id='60'> +4.9813962e+02 </wgt>
<wgt id='61'> +4.2547242e+02 </wgt>
<wgt id='62'> +4.5522184e+02 </wgt>
<wgt id='63'> +5.3739781e+02 </wgt>
<wgt id='64'> +5.0717128e+02 </wgt>
<wgt id='65'> +4.4215065e+02 </wgt>
<wgt id='66'> +5.1579562e+02 </wgt>
<wgt id='67'> +5.0888821e+02 </wgt>
<wgt id='68'> +6.3812647e+02 </wgt>
<wgt id='69'> +5.6125134e+02 </wgt>
<wgt id='70'> +5.6675545e+02 </wgt>
<wgt id='71'> +4.5828046e+02 </wgt>
<wgt id='72'> +4.5090411e+02 </wgt>
<wgt id='73'> +4.5103038e+02 </wgt>
<wgt id='74'> +5.9783592e+02 </wgt>
<wgt id='75'> +5.6825981e+02 </wgt>
<wgt id='76'> +5.2114157e+02 </wgt>
<wgt id='77'> +4.6648789e+02 </wgt>
<wgt id='78'> +4.2549216e+02 </wgt>
<wgt id='79'> +5.5222191e+02 </wgt>
<wgt id='80'> +4.3425909e+02 </wgt>
<wgt id='81'> +5.3397737e+02 </wgt>
<wgt id='82'> +5.0119109e+02 </wgt>
<wgt id='83'> +4.9827612e+02 </wgt>
<wgt id='84'> +4.8281322e+02 </wgt>
<wgt id='85'> +4.4398135e+02 </wgt>
<wgt id='86'> +5.3939918e+02 </wgt>
<wgt id='87'> +4.9239381e+02 </wgt>
<wgt id='88'> +4.9624175e+02 </wgt>
<wgt id='89'> +4.0215261e+02 </wgt>
<wgt id='90'> +4.5382115e+02 </wgt>
<wgt id='91'> +4.2237757e+02 </wgt>
<wgt id='92'> +4.7578770e+02 </wgt>
<wgt id='93'> +5.1327523e+02 </wgt>
<wgt id='94'> +4.5822241e+02 </wgt>
<wgt id='95'> +5.3159619e+02 </wgt>
<wgt id='96'> +5.2909534e+02 </wgt>
<wgt id='97'> +4.4754935e+02 </wgt>
<wgt id='98'> +5.6052147e+02 </wgt>
<wgt id='99'> +4.0949767e+02 </wgt>
<wgt id='100'> +3.6673593e+02 </wgt>
<wgt id='101'> +5.9334497e+02 </wgt>
<wgt id='102'> +5.7506675e+02 </wgt>
<wgt id='103'> +4.6611406e+02 </wgt>
<wgt id='104'> +5.4999691e+02 </wgt>
<wgt id='105'> +5.1633404e+02 </wgt>
<wgt id='106'> +4.9904203e+02 </wgt>
<wgt id='107'> +4.9737696e+02 </wgt>
<wgt id='108'> +4.7602081e+02 </wgt>
<wgt id='109'> +5.0188863e+02 </wgt>
<wgt id='110'> +4.5097618e+02 </wgt>
<wgt id='111'> +4.8693179e+02 </wgt>
<wgt id='112'> +5.3255940e+02 </wgt>
<wgt id='113'> +5.5217665e+02 </wgt>
<wgt id='114'> +5.2721346e+02 </wgt>
<wgt id='115'> +4.6539015e+02 </wgt>
<wgt id='116'> +5.6098879e+02 </wgt>
<wgt id='117'> +4.9810212e+02 </wgt>
<wgt id='118'> +5.1383034e+02 </wgt>
<wgt id='119'> +5.6553446e+02 </wgt>
<wgt id='120'> +5.0513400e+02 </wgt>
<wgt id='121'> +4.8851396e+02 </wgt>
<wgt id='122'> +4.8991556e+02 </wgt>
<wgt id='123'> +4.7219989e+02 </wgt>
<wgt id='124'> +5.6884354e+02 </wgt>
<wgt id='125'> +6.5683835e+02 </wgt>
<wgt id='126'> +4.8843435e+02 </wgt>
<wgt id='127'> +4.7301211e+02 </wgt>
<wgt id='128'> +4.9515389e+02 </wgt>
<wgt id='129'> +5.0358174e+02 </wgt>
<wgt id='130'> +5.1122798e+02 </wgt>
<wgt id='131'> +4.5161732e+02 </wgt>
<wgt id='132'> +5.4968743e+02 </wgt>
<wgt id='133'> +5.5619953e+02 </wgt>
<wgt id='134'> +5.3952890e+02 </wgt>
<wgt id='135'> +4.7689840e+02 </wgt>
<wgt id='136'> +6.0552698e+02 </wgt>
<wgt id='137'> +5.4750744e+02 </wgt>
<wgt id='138'> +5.2595638e+02 </wgt>
<wgt id='139'> +5.2078060e+02 </wgt>
<wgt id='140'> +4.9003918e+02 </wgt>
<wgt id='141'> +5.9576869e+02 </wgt>
<wgt id='142'> +3.2118367e+02 </wgt>
<wgt id='143'> +5.1457253e+02 </wgt>
<wgt id='144'> +4.5009419e+02 </wgt>
<wgt id='145'> +4.5790308e+02 </wgt>
</rwgt>
</event>
<event>
 4      1 +5.0481800e+02 2.05967000e+02 7.54677100e-03 1.14480000e-01
       21 -1    0    0  503  502 +0.0000000000e+00 +0.0000000000e+00 +1.0793517151e+02 1.0793517151e+02 0.0000000000e+00 0.0000e+00 1.0000e+00
       21 -1    0    0  501  503 -0.0000000000e+00 -0.0000000000e+00 -3.9698639914e+02 3.9698639914e+02 0.0000000000e+00 0.0000e+00 1.0000e+00
        6  1    1    2  501    0 +2.0118410863e+01 -1.0994849283e+02 -1.1934190157e+02 2.3804392662e+02 1.7300000000e+02 0.0000e+00 1.0000e+00
       -6  1    1    2    0  502 -2.0118410863e+01 +1.0994849283e+02 -1.6970932606e+02 2.6687764403e+02 1.7300000000e+02 0.0000e+00 1.0000e+00
<mgrwt>
<rscale>  2 0.20596704E+03</rscale>
<asrwt>0</asrwt>
<pdfrwt beam="1">  1       21 0.16605411E-01 0.20596704E+03</pdfrwt>
<pdfrwt beam="2">  1       21 0.61074831E-01 0.20596704E+03</pdfrwt>
<totfact> 0.80774197E+04</totfact>
</mgrwt>
<rwgt>
<wgt id='1'> +6.4596218e+02 </wgt>
<wgt id='2'> +5.5781489e+02 </wgt>
<wgt id='3'> +5.0481800e+02 </wgt>
<wgt id='4'> +6.4596218e+02 </wgt>
<wgt id='5'> +5.0394827e+02 </wgt>
<wgt id='6'> +6.1729351e+02 </wgt>
<wgt id='7'> +5.2633875e+02 </wgt>
<wgt id='8'> +4.7453853e+02 </wgt>
<wgt id='9'> +6.1729351e+02 </wgt>
<wgt id='10'> +4.7371743e+02 </wgt>
<wgt id='11'> +5.8026764e+02 </wgt>
<wgt id='12'> +4.9459785e+02 </wgt>
<wgt id='13'> +4.4585854e+02 </wgt>
<wgt id='14'> +5.8026764e+02 </wgt>
<wgt id='15'> +4.4508656e+02 </wgt>
<wgt id='16'> +5.2826303e+02 </wgt>
<wgt id='17'> +4.6598178e+02 </wgt>
<wgt id='18'> +4.2568965e+02 </wgt>
<wgt id='19'> +5.2826303e+02 </wgt>
<wgt id='20'> +4.2500004e+02 </wgt>
<wgt id='21'> +4.3968756e+02 </wgt>
<wgt id='22'> +4.0015637e+02 </wgt>
<wgt id='23'> +5.0481800e+02 </wgt>
<wgt id='24'> +3.9950514e+02 </wgt>
<wgt id='25'> +4.7453853e+02 </wgt>
<wgt id='26'> +4.1317216e+02 </wgt>
<wgt id='27'> +3.7597187e+02 </wgt>
<wgt id='28'> +4.7453853e+02 </wgt>
<wgt id='29'> +3.7535956e+02 </wgt>
<wgt id='30'> +4.4545976e+02 </wgt>
<wgt id='31'> +3.9608721e+02 </wgt>
<wgt id='32'> +3.6375252e+02 </wgt>
<wgt id='33'> +4.4545976e+02 </wgt>
<wgt id='34'> +3.6319582e+02 </wgt>
<wgt id='35'> +4.2568965e+02 </wgt>
<wgt id='36'> +3.7373697e+02 </wgt>
<wgt id='37'> +3.4193429e+02 </wgt>
<wgt id='38'> +4.2568965e+02 </wgt>
<wgt id='39'> +3.4140843e+02 </wgt>
<wgt id='40'> +4.0015637e+02 </wgt>
<wgt id='41'> +3.5119873e+02 </wgt>
<wgt id='42'> +3.2126859e+02 </wgt>
<wgt id='43'> +4.0015637e+02 </wgt>
<wgt id='44'> +3.2077415e+02 </wgt>
<wgt id='45'> +5.0481800e+02 </wgt>
<wgt id='46'> +5.0664702e+02 </wgt>
<wgt id='47'> +5.2120470e+02 </wgt>
<wgt id='48'> +5.0641473e+02 </wgt>
<wgt id='49'> +5.0261044e+02 </wgt>
<wgt id='50'> +5.8711492e+02 </wgt>
<wgt id='51'> +4.9493517e+02 </wgt>
<wgt id='52'> +5.0284513e+02 </wgt>
<wgt id='53'> +5.0785890e+02 </wgt>
<wgt id='54'> +5.0827501e+02 </wgt>
<wgt id='55'> +4.5834986e+02 </wgt>
<wgt id='56'> +4.6911205e+02 </wgt>
<wgt id='57'> +4.9503557e+02 </wgt>
<wgt id='58'> +5.0635745e+02 </wgt>
<wgt id='59'> +5.0302566e+02 </wgt>
<wgt id='60'> +4.8932573e+02 </wgt>
<wgt id='61'> +4.8261971e+02 </wgt>
<wgt id='62'> +4.9781179e+02 </wgt>
<wgt id='63'> +5.0541070e+02 </wgt>
<wgt id='64'> +4.9908142e+02 </wgt>
<wgt id='65'> +5.8492729e+02 </wgt>
<wgt id='66'> +4.9363990e+02 </wgt>
<wgt id='67'> +5.0902547e+02 </wgt>
<wgt id='68'> +5.4261939e+02 </wgt>
<wgt id='69'> +4.9374327e+02 </wgt>
<wgt id='70'> +4.9714846e+02 </wgt>
<wgt id='71'> +5.1367852e+02 </wgt>
<wgt id='72'> +4.9173691e+02 </wgt>
<wgt id='73'> +4.9716128e+02 </wgt>
<wgt id='74'> +5.2160310e+02 </wgt>
<wgt id='75'> +5.1530559e+02 </wgt>
<wgt id='76'> +4.9252581e+02 </wgt>
<wgt id='77'> +4.8870184e+02 </wgt>
<wgt id='78'> +5.0095529e+02 </wgt>
<wgt id='79'> +4.8763975e+02 </wgt>
<wgt id='80'> +4.9909749e+02 </wgt>
<wgt id='81'> +4.9599392e+02 </wgt>
<wgt id='82'> +5.1402613e+02 </wgt>
<wgt id='83'> +5.1338491e+02 </wgt>
<wgt id='84'> +5.4990853e+02 </wgt>
<wgt id='85'> +5.2684257e+02 </wgt>
<wgt id='86'> +5.0219331e+02 </wgt>
<wgt id='87'> +5.0547507e+02 </wgt>
<wgt id='88'> +5.1138787e+02 </wgt>
<wgt id='89'> +5.1562369e+02 </wgt>
<wgt id='90'> +5.1170754e+02 </wgt>
<wgt id='91'> +5.3252608e+02 </wgt>
<wgt id='92'> +4.6663035e+02 </wgt>
<wgt id='93'> +4.9738238e+02 </wgt>
<wgt id='94'> +5.0071135e+02 </wgt>
<wgt id='95'> +4.8798110e+02 </wgt>
<wgt id='96'> +5.4227769e+02 </wgt>
<wgt id='97'> +5.1011187e+02 </wgt>
<wgt id='98'> +4.8448360e+02 </wgt>
<wgt id='99'> +4.8882427e+02 </wgt>
<wgt id='100'> +4.9639299e+02 </wgt>
<wgt id='101'> +5.3403504e+02 </wgt>
<wgt id='102'> +4.9546651e+02 </wgt>
<wgt id='103'> +5.4588164e+02 </wgt>
<wgt id='104'> +5.0424942e+02 </wgt>
<wgt id='105'> +5.2410964e+02 </wgt>
<wgt id='106'> +4.6572850e+02 </wgt>
<wgt id='107'> +4.9611385e+02 </wgt>
<wgt id='108'> +4.5301417e+02 </wgt>
<wgt id='109'> +4.7569639e+02 </wgt>
<wgt id='110'> +5.0522352e+02 </wgt>
<wgt id='111'> +4.9212629e+02 </wgt>
<wgt id='112'> +4.8139010e+02 </wgt>
<wgt id='113'> +4.6582099e+02 </wgt>
<wgt id='114'> +5.0176621e+02 </wgt>
<wgt id='115'> +4.9948152e+02 </wgt>
<wgt id='116'> +5.0682926e+02 </wgt>
<wgt id='117'> +5.0853693e+02 </wgt>
<wgt id='118'> +5.1882114e+02 </wgt>
<wgt id='119'> +4.8748329e+02 </wgt>
<wgt id='120'> +4.9918668e+02 </wgt>
<wgt id='121'> +4.9240738e+02 </wgt>
<wgt id='122'> +4.9888782e+02 </wgt>
<wgt id='123'> +5.0985698e+02 </wgt>
<wgt id='124'> +5.4101897e+02 </wgt>
<wgt id='125'> +5.4287413e+02 </wgt>
<wgt id='126'> +5.2231324e+02 </wgt>
<wgt id='127'> +5.1878062e+02 </wgt>
<wgt id='128'> +4.6728459e+02 </wgt>
<wgt id='129'> +5.6853856e+02 </wgt>
<wgt id='130'> +5.0587953e+02 </wgt>
<wgt id='131'> +5.3689443e+02 </wgt>
<wgt id='132'> +5.0617219e+02 </wgt>
<wgt id='133'> +5.0429411e+02 </wgt>
<wgt id='134'> +4.7919930e+02 </wgt>
<wgt id='135'> +5.1633708e+02 </wgt>
<wgt id='136'> +4.9195386e+02 </wgt>
<wgt id='137'> +4.7725792e+02 </wgt>
<wgt id='138'> +4.6177307e+02 </wgt>
<wgt id='139'> +5.1523775e+02 </wgt>
<wgt id='140'> +5.3245431e+02 </wgt>
<wgt id='141'> +5.0524491e+02 </wgt>
<wgt id='142'> +5.0215066e+02 </wgt>
<wgt id='143'> +5.0396056e+02 </wgt>
<wgt id='144'> +5.0347587e+02 </wgt>
<wgt id='145'> +5.0541773e+02 </wgt>
</rwgt>
</event>
<event>
 4      1 +5.0481800e+02 1.97489200e+02 7.54677100e-03 1.15187500e-01
       21 -1    0    0  503  502 +0.0000000000e+00 +0.0000000000e+00 +3.0877497340e+02 3.0877497340e+02 0.0000000000e+00 0.0000e+00 -1.0000e+00
       21 -1    0    0  501  503 -0.0000000000e+00 -0.0000000000e+00 -1.7709671217e+02 1.7709671217e+02 0.0000000000e+00 0.0000e+00 -1.0000e+00
        6  1    1    2  501    0 -7.0419585602e+01 +6.4141099471e+01 +1.9593174655e+02 2.7819282519e+02 1.7300000000e+02 0.0000e+00 -1.0000e+00
       -6  1    1    2    0  502 +7.0419585602e+01 -6.4141099471e+01 -6.4253485322e+01 2.0767886039e+02 1.7300000000e+02 0.0000e+00 -1.0000e+00
<mgrwt>
<rscale>  2 0.19748924E+03</rscale>
<asrwt>0</asrwt>
<pdfrwt beam="1">  1       21 0.47503842E-01 0.19748924E+03</pdfrwt>
<pdfrwt beam="2">  1       21 0.27245648E-01 0.19748924E+03</pdfrwt>
<totfact> 0.54306602E+04</totfact>
</mgrwt>
<rwgt>
<wgt id='1'> +6.5087779e+02 </wgt>
<wgt id='2'> +5.6152830e+02 </wgt>
<wgt id='3'> +5.0481800e+02 </wgt>
<wgt id='4'> +6.5087779e+02 </wgt>
<wgt id='5'> +4.7563617e+02 </wgt>
<wgt id='6'> +6.1870191e+02 </wgt>
<wgt id='7'> +5.2741183e+02 </wgt>
<wgt id='8'> +4.7189634e+02 </wgt>
<wgt id='9'> +6.1870192e+02 </wgt>
<wgt id='10'> +4.4461946e+02 </wgt>
<wgt id='11'> +5.7835331e+02 </wgt>
<wgt id='12'> +4.9300035e+02 </wgt>
<wgt id='13'> +4.4115094e+02 </wgt>
<wgt id='14'> +5.7835332e+02 </wgt>
<wgt id='15'> +4.1570079e+02 </wgt>
<wgt id='16'> +5.3107129e+02 </wgt>
<wgt id='17'> +4.6790089e+02 </wgt>
<wgt id='18'> +4.2528522e+02 </wgt>
<wgt id='19'> +5.3107129e+02 </wgt>
<wgt id='20'> +4.0206758e+02 </wgt>
<wgt id='21'> +4.3947289e+02 </wgt>
<wgt id='22'> +3.9755027e+02 </wgt>
<wgt id='23'> +5.0481800e+02 </wgt>
<wgt id='24'> +3.7584835e+02 </wgt>
<wgt id='25'> +4.7189633e+02 </wgt>
<wgt id='26'> +4.1079907e+02 </wgt>
<wgt id='27'> +3.7164874e+02 </wgt>
<wgt id='28'> +4.7189634e+02 </wgt>
<wgt id='29'> +3.5140265e+02 </wgt>
<wgt id='30'> +4.4740237e+02 </wgt>
<wgt id='31'> +3.9732350e+02 </wgt>
<wgt id='32'> +3.6313159e+02 </wgt>
<wgt id='33'> +4.4740237e+02 </wgt>
<wgt id='34'> +3.4433378e+02 </wgt>
<wgt id='35'> +4.2528521e+02 </wgt>
<wgt id='36'> +3.7318353e+02 </wgt>
<wgt id='37'> +3.3945000e+02 </wgt>
<wgt id='38'> +4.2528522e+02 </wgt>
<wgt id='39'> +3.2187943e+02 </wgt>
<wgt id='40'> +3.9755027e+02 </wgt>
<wgt id='41'> +3.4883482e+02 </wgt>
<wgt id='42'> +3.1733386e+02 </wgt>
<wgt id='43'> +3.9755027e+02 </wgt>
<wgt id='44'> +3.0094394e+02 </wgt>
<wgt id='45'> +5.0481800e+02 </wgt>
<wgt id='46'> +5.0570226e+02 </wgt>
<wgt id='47'> +5.2358774e+02 </wgt>
<wgt id='48'> +5.0695401e+02 </wgt>
<wgt id='49'> +5.0387647e+02 </wgt>
<wgt id='50'> +5.9247675e+02 </wgt>
<wgt id='51'> +4.9510732e+02 </wgt>
<wgt id='52'> +5.0213985e+02 </wgt>
<wgt id='53'> +5.1033823e+02 </wgt>
<wgt id='54'> +5.0767891e+02 </wgt>
<wgt id='55'> +4.5000611e+02 </wgt>
<wgt id='56'> +4.6849914e+02 </wgt>
<wgt id='57'> +4.9083300e+02 </wgt>
<wgt id='58'> +5.0746062e+02 </wgt>
<wgt id='59'> +4.9780292e+02 </wgt>
<wgt id='60'> +4.8454909e+02 </wgt>
<wgt id='61'> +4.9061903e+02 </wgt>
<wgt id='62'> +4.9848221e+02 </wgt>
<wgt id='63'> +5.0522008e+02 </wgt>
<wgt id='64'> +4.9932654e+02 </wgt>
<wgt id='65'> +5.9684975e+02 </wgt>
<wgt id='66'> +4.9288480e+02 </wgt>
<wgt id='67'> +5.0938545e+02 </wgt>
<wgt id='68'> +5.4178177e+02 </wgt>
<wgt id='69'> +4.9347656e+02 </wgt>
<wgt id='70'> +4.9606507e+02 </wgt>
<wgt id='71'> +5.1443285e+02 </wgt>
<wgt id='72'> +4.8868477e+02 </wgt>
<wgt id='73'> +4.9780191e+02 </wgt>
<wgt id='74'> +5.2076061e+02 </wgt>
<wgt id='75'> +5.1637743e+02 </wgt>
<wgt id='76'> +4.8944973e+02 </wgt>
<wgt id='77'> +4.8662360e+02 </wgt>
<wgt id='78'> +5.0450591e+02 </wgt>
<wgt id='79'> +4.8432742e+02 </wgt>
<wgt id='80'> +5.0025120e+02 </wgt>
<wgt id='81'> +4.9498255e+02 </wgt>
<wgt id='82'> +5.1838825e+02 </wgt>
<wgt id='83'> +5.1608267e+02 </wgt>
<wgt id='84'> +5.5575136e+02 </wgt>
<wgt id='85'> +5.3194519e+02 </wgt>
<wgt id='86'> +5.0207734e+02 </wgt>
<wgt id='87'> +5.0513595e+02 </wgt>
<wgt id='88'> +5.1413309e+02 </wgt>
<wgt id='89'> +5.1749736e+02 </wgt>
<wgt id='90'> +5.1074809e+02 </wgt>
<wgt id='91'> +5.3751609e+02 </wgt>
<wgt id='92'> +4.6215018e+02 </wgt>
<wgt id='93'> +4.9655136e+02 </wgt>
<wgt id='94'> +5.0155861e+02 </wgt>
<wgt id='95'> +4.8324041e+02 </wgt>
<wgt id='96'> +5.4736466e+02 </wgt>
<wgt id='97'> +5.1236939e+02 </wgt>
<wgt id='98'> +4.8131232e+02 </wgt>
<wgt id='99'> +4.8988718e+02 </wgt>
<wgt id='100'> +4.9971360e+02 </wgt>
<wgt id='101'> +5.3183828e+02 </wgt>
<wgt id='102'> +4.9125962e+02 </wgt>
<wgt id='103'> +5.4953095e+02 </wgt>
<wgt id='104'> +5.0445902e+02 </wgt>
<wgt id='105'> +5.2415728e+02 </wgt>
<wgt id='106'> +4.6240905e+02 </wgt>
<wgt id='107'> +4.9716248e+02 </wgt>
<wgt id='108'> +4.5051557e+02 </wgt>
<wgt id='109'> +4.7298705e+02 </wgt>
<wgt id='110'> +5.0550043e+02 </wgt>
<wgt id='111'> +4.9093234e+02 </wgt>
<wgt id='112'> +4.8073446e+02 </wgt>
<wgt id='113'> +4.6224205e+02 </wgt>
<wgt id='114'> +5.0212105e+02 </wgt>
<wgt id='115'> +5.0476193e+02 </wgt>
<wgt id='116'> +5.0553348e+02 </wgt>
<wgt id='117'> +5.1133145e+02 </wgt>
<wgt id='118'> +5.1870945e+02 </wgt>
<wgt id='119'> +4.8436401e+02 </wgt>
<wgt id='120'> +5.0221659e+02 </wgt>
<wgt id='121'> +4.8984643e+02 </wgt>
<wgt id='122'> +4.9798706e+02 </wgt>
<wgt id='123'> +5.1190510e+02 </wgt>
<wgt id='124'> +5.4047249e+02 </wgt>
<wgt id='125'> +5.4144643e+02 </wgt>
<wgt id='126'> +5.2514574e+02 </wgt>
<wgt id='127'> +5.2045108e+02 </wgt>
<wgt id='128'> +4.6790025e+02 </wgt>
<wgt id='129'> +5.7268377e+02 </wgt>
<wgt id='130'> +5.0941875e+02 </wgt>
<wgt id='131'> +5.4122619e+02 </wgt>
<wgt id='132'> +4.9957364e+02 </wgt>
<wgt id='133'> +5.0202925e+02 </wgt>
<wgt id='134'> +4.7440169e+02 </wgt>
<wgt id='135'> +5.1802658e+02 </wgt>
<wgt id='136'> +4.8375221e+02 </wgt>
<wgt id='137'> +4.7549262e+02 </wgt>
<wgt id='138'> +4.5981492e+02 </wgt>
<wgt id='139'> +5.1501019e+02 </wgt>
<wgt id='140'> +5.3664460e+02 </wgt>
<wgt id='141'> +5.0421974e+02 </wgt>
<wgt id='142'> +5.0764235e+02 </wgt>
<wgt id='143'> +5.0048004e+02 </wgt>
<wgt id='144'> +5.0376994e+02 </wgt>
<wgt id='145'> +5.0608746e+02 </wgt>
</rwgt>
</event>
<event>
 4      1 +5.0481800e+02 1.94422500e+02 7.54677100e-03 1.15453200e-01
       21 -1    0    0  503  502 +0.0000000000e+00 +0.0000000000e+00 +2.9464714997e+03 2.9464714997e+03 0.0000000000e+00 0.0000e+00 1.0000e+00
       21 -1    0    0  501  503 -0.0000000000e+00 -0.0000000000e+00 -1.6106990871e+01 1.6106990871e+01 0.0000000000e+00 0.0000e+00 -1.0000e+00
        6  1    1    2  501    0 +8.6551199232e+01 -1.9493458300e+01 +7.9692984685e+02 8.2030316701e+02 1.7300000000e+02 0.0000e+00 -1.0000e+00
       -6  1    1    2    0  502 -8.6551199232e+01 +1.9493458300e+01 +2.1334346620e+03 2.1422753236e+03 1.7300000000e+02 0.0000e+00 1.0000e+00
<mgrwt>
<rscale>  2 0.19442249E+03</rscale>
<asrwt>0</asrwt>
<pdfrwt beam="1">  1       21 0.45330288E+00 0.19442249E+03</pdfrwt>
<pdfrwt beam="2">  1       21 0.24780009E-02 0.19442249E+03</pdfrwt>
<totfact> 0.34207604E+03</totfact>
</mgrwt>
<rwgt>
<wgt id='1'> +7.5158196e+02 </wgt>
<wgt id='2'> +7.8811553e+02 </wgt>
<wgt id='3'> +5.0481800e+02 </wgt>
<wgt id='4'> +7.5158196e+02 </wgt>
<wgt id='5'> +4.7460097e+02 </wgt>
<wgt id='6'> +6.1919471e+02 </wgt>
<wgt id='7'> +6.4882110e+02 </wgt>
<wgt id='8'> +4.1725043e+02 </wgt>
<wgt id='9'> +6.1919470e+02 </wgt>
<wgt id='10'> +3.9336720e+02 </wgt>
<wgt id='11'> +5.1178694e+02 </wgt>
<wgt id='12'> +5.3551788e+02 </wgt>
<wgt id='13'> +3.5065787e+02 </wgt>
<wgt id='14'> +5.1178694e+02 </wgt>
<wgt id='15'> +3.3143397e+02 </wgt>
<wgt id='16'> +6.1275088e+02 </wgt>
<wgt id='17'> +6.4018301e+02 </wgt>
<wgt id='18'> +4.2511372e+02 </wgt>
<wgt id='19'> +6.1275088e+02 </wgt>
<wgt id='20'> +4.0064533e+02 </wgt>
<wgt id='21'> +5.2703472e+02 </wgt>
<wgt id='22'> +3.5137195e+02 </wgt>
<wgt id='23'> +5.0481800e+02 </wgt>
<wgt id='24'> +3.3206997e+02 </wgt>
<wgt id='25'> +4.1725043e+02 </wgt>
<wgt id='26'> +4.3499898e+02 </wgt>
<wgt id='27'> +2.9529350e+02 </wgt>
<wgt id='28'> +4.1725043e+02 </wgt>
<wgt id='29'> +2.7978761e+02 </wgt>
<wgt id='30'> +5.1600539e+02 </wgt>
<wgt id='31'> +5.3786235e+02 </wgt>
<wgt id='32'> +3.6288246e+02 </wgt>
<wgt id='33'> +5.1600539e+02 </wgt>
<wgt id='34'> +3.4269258e+02 </wgt>
<wgt id='35'> +4.2511372e+02 </wgt>
<wgt id='36'> +4.4279858e+02 </wgt>
<wgt id='37'> +2.9993554e+02 </wgt>
<wgt id='38'> +4.2511372e+02 </wgt>
<wgt id='39'> +2.8403655e+02 </wgt>
<wgt id='40'> +3.5137195e+02 </wgt>
<wgt id='41'> +3.6547294e+02 </wgt>
<wgt id='42'> +2.5206627e+02 </wgt>
<wgt id='43'> +3.5137195e+02 </wgt>
<wgt id='44'> +2.3931676e+02 </wgt>
<wgt id='45'> +5.0481800e+02 </wgt>
<wgt id='46'> +5.0642422e+02 </wgt>
<wgt id='47'> +6.2703388e+02 </wgt>
<wgt id='48'> +4.4858789e+02 </wgt>
<wgt id='49'> +3.9021693e+02 </wgt>
<wgt id='50'> +7.4640081e+02 </wgt>
<wgt id='51'> +5.8202468e+02 </wgt>
<wgt id='52'> +3.8536957e+02 </wgt>
<wgt id='53'> +6.2446212e+02 </wgt>
<wgt id='54'> +5.1691072e+02 </wgt>
<wgt id='55'> +6.5291519e+02 </wgt>
<wgt id='56'> +4.6980419e+02 </wgt>
<wgt id='57'> +6.3706310e+02 </wgt>
<wgt id='58'> +3.9998010e+02 </wgt>
<wgt id='59'> +6.0185966e+02 </wgt>
<wgt id='60'> +5.2553226e+02 </wgt>
<wgt id='61'> +3.8385400e+02 </wgt>
<wgt id='62'> +4.2168000e+02 </wgt>
<wgt id='63'> +5.6113234e+02 </wgt>
<wgt id='64'> +5.0432876e+02 </wgt>
<wgt id='65'> +3.5459118e+02 </wgt>
<wgt id='66'> +4.7970044e+02 </wgt>
<wgt id='67'> +4.7366712e+02 </wgt>
<wgt id='68'> +8.3922914e+02 </wgt>
<wgt id='69'> +6.0480639e+02 </wgt>
<wgt id='70'> +7.9197851e+02 </wgt>
<wgt id='71'> +4.4188942e+02 </wgt>
<wgt id='72'> +3.8372876e+02 </wgt>
<wgt id='73'> +3.5719487e+02 </wgt>
<wgt id='74'> +7.9440243e+02 </wgt>
<wgt id='75'> +5.7999347e+02 </wgt>
<wgt id='76'> +4.3319200e+02 </wgt>
<wgt id='77'> +3.9135185e+02 </wgt>
<wgt id='78'> +4.3206838e+02 </wgt>
<wgt id='79'> +5.3182223e+02 </wgt>
<wgt id='80'> +2.4398634e+02 </wgt>
<wgt id='81'> +5.7040321e+02 </wgt>
<wgt id='82'> +4.4345825e+02 </wgt>
<wgt id='83'> +5.1754315e+02 </wgt>
<wgt id='84'> +3.5006106e+02 </wgt>
<wgt id='85'> +4.4126894e+02 </wgt>
<wgt id='86'> +4.4433275e+02 </wgt>
<wgt id='87'> +4.2546537e+02 </wgt>
<wgt id='88'> +5.6926151e+02 </wgt>
<wgt id='89'> +2.5103964e+02 </wgt>
<wgt id='90'> +3.8704911e+02 </wgt>
<wgt id='91'> +3.3835213e+02 </wgt>
<wgt id='92'> +4.1810021e+02 </wgt>
<wgt id='93'> +5.7047715e+02 </wgt>
<wgt id='94'> +3.2054298e+02 </wgt>
<wgt id='95'> +5.4439707e+02 </wgt>
<wgt id='96'> +3.9413770e+02 </wgt>
<wgt id='97'> +4.0624986e+02 </wgt>
<wgt id='98'> +6.7973788e+02 </wgt>
<wgt id='99'> +3.6553598e+02 </wgt>
<wgt id='100'> +2.9669601e+02 </wgt>
<wgt id='101'> +7.3676879e+02 </wgt>
<wgt id='102'> +7.0077006e+02 </wgt>
<wgt id='103'> +4.2712517e+02 </wgt>
<wgt id='104'> +5.4207191e+02 </wgt>
<wgt id='105'> +5.6963166e+02 </wgt>
<wgt id='106'> +4.7614735e+02 </wgt>
<wgt id='107'> +5.3083696e+02 </wgt>
<wgt id='108'> +4.6509131e+02 </wgt>
<wgt id='109'> +5.7275212e+02 </wgt>
<wgt id='110'> +2.7242382e+02 </wgt>
<wgt id='111'> +4.7180344e+02 </wgt>
<wgt id='112'> +5.3647342e+02 </wgt>
<wgt id='113'> +6.5546347e+02 </wgt>
<wgt id='114'> +2.9326456e+02 </wgt>
<wgt id='115'> +4.4089628e+02 </wgt>
<wgt id='116'> +6.5269141e+02 </wgt>
<wgt id='117'> +5.7313838e+02 </wgt>
<wgt id='118'> +5.3574771e+02 </wgt>
<wgt id='119'> +5.2024388e+02 </wgt>
<wgt id='120'> +4.1389361e+02 </wgt>
<wgt id='121'> +4.6384556e+02 </wgt>
<wgt id='122'> +4.0381965e+02 </wgt>
<wgt id='123'> +4.2161475e+02 </wgt>
<wgt id='124'> +6.1336325e+02 </wgt>
<wgt id='125'> +9.4421956e+02 </wgt>
<wgt id='126'> +4.8958669e+02 </wgt>
<wgt id='127'> +4.8027143e+02 </wgt>
<wgt id='128'> +5.1295952e+02 </wgt>
<wgt id='129'> +4.8009495e+02 </wgt>
<wgt id='130'> +4.1619256e+02 </wgt>
<wgt id='131'> +3.7180473e+02 </wgt>
<wgt id='132'> +5.4247663e+02 </wgt>
<wgt id='133'> +5.0673064e+02 </wgt>
<wgt id='134'> +6.7431591e+02 </wgt>
<wgt id='135'> +4.7725941e+02 </wgt>
<wgt id='136'> +7.0874126e+02 </wgt>
<wgt id='137'> +5.5934103e+02 </wgt>
<wgt id='138'> +6.5392167e+02 </wgt>
<wgt id='139'> +5.5825581e+02 </wgt>
<wgt id='140'> +4.5811825e+02 </wgt>
<wgt id='141'> +7.8736560e+02 </wgt>
<wgt id='142'> +2.1467751e+02 </wgt>
<wgt id='143'> +5.8297966e+02 </wgt>
<wgt id='144'> +4.2026535e+02 </wgt>
<wgt id='145'> +3.8863968e+02 </wgt>
</rwgt>
</event>
<event>
 4      1 +5.0481800e+02 3.32720200e+02 7.54677100e-03 1.06994000e-01
       21 -1    0    0  501  502 +0.0000000000e+00 +0.0000000000e+00 +3.9677672784e+02 3.9677672784e+02 0.0000000000e+00 0.0000e+00 -1.0000e+00
       21 -1    0    0  502  503 -0.0000000000e+00 -0.0000000000e+00 -2.8691349748e+02 2.8691349748e+02 0.0000000000e+00 0.0000e+00 1.0000e+00
        6  1    1    2  501    0 +1.8437849763e+02 -2.1628296902e+02 -1.8223979633e+00 3.3272522329e+02 1.7300000000e+02 0.0000e+00 -1.0000e+00
       -6  1    1    2    0  503 -1.8437849763e+02 +2.1628296902e+02 +1.1168562832e+02 3.5096500203e+02 1.7300000000e+02 0.0000e+00 1.0000e+00
<mgrwt>
<rscale>  2 0.33272023E+03</rscale>
<asrwt>0</asrwt>
<pdfrwt beam="1">  1       21 0.61042573E-01 0.33272023E+03</pdfrwt>
<pdfrwt beam="2">  1       21 0.44140538E-01 0.33272023E+03</pdfrwt>
<totfact> 0.11449384E+04</totfact>
</mgrwt>
<rwgt>
<wgt id='1'> +6.5971922e+02 </wgt>
<wgt id='2'> +5.0655213e+02 </wgt>
<wgt id='3'> +5.0481800e+02 </wgt>
<wgt id='4'> +6.5971921e+02 </wgt>
<wgt id='5'> +5.0218885e+02 </wgt>
<wgt id='6'> +6.0247577e+02 </wgt>
<wgt id='7'> +4.6291801e+02 </wgt>
<wgt id='8'> +4.6134886e+02 </wgt>
<wgt id='9'> +6.0247577e+02 </wgt>
<wgt id='10'> +4.5896981e+02 </wgt>
<wgt id='11'> +5.5059747e+02 </wgt>
<wgt id='12'> +4.2418908e+02 </wgt>
<wgt id='13'> +4.2276700e+02 </wgt>
<wgt id='14'> +5.5059746e+02 </wgt>
<wgt id='15'> +4.2061089e+02 </wgt>
<wgt id='16'> +5.5278262e+02 </wgt>
<wgt id='17'> +4.3108652e+02 </wgt>
<wgt id='18'> +4.2968497e+02 </wgt>
<wgt id='19'> +5.5278262e+02 </wgt>
<wgt id='20'> +4.2755960e+02 </wgt>
<wgt id='21'> +3.9395297e+02 </wgt>
<wgt id='22'> +3.9268543e+02 </wgt>
<wgt id='23'> +5.0481800e+02 </wgt>
<wgt id='24'> +3.9076326e+02 </wgt>
<wgt id='25'> +4.6134886e+02 </wgt>
<wgt id='26'> +3.6099383e+02 </wgt>
<wgt id='27'> +3.5984578e+02 </wgt>
<wgt id='28'> +4.6134886e+02 </wgt>
<wgt id='29'> +3.5810477e+02 </wgt>
<wgt id='30'> +4.7051092e+02 </wgt>
<wgt id='31'> +3.7130992e+02 </wgt>
<wgt id='32'> +3.7015710e+02 </wgt>
<wgt id='33'> +4.7051092e+02 </wgt>
<wgt id='34'> +3.6840855e+02 </wgt>
<wgt id='35'> +4.2968497e+02 </wgt>
<wgt id='36'> +3.3932549e+02 </wgt>
<wgt id='37'> +3.3828341e+02 </wgt>
<wgt id='38'> +4.2968497e+02 </wgt>
<wgt id='39'> +3.3670283e+02 </wgt>
<wgt id='40'> +3.9268543e+02 </wgt>
<wgt id='41'> +3.1093663e+02 </wgt>
<wgt id='42'> +3.0999332e+02 </wgt>
<wgt id='43'> +3.9268543e+02 </wgt>
<wgt id='44'> +3.0856251e+02 </wgt>
<wgt id='45'> +5.0481800e+02 </wgt>
<wgt id='46'> +5.1713763e+02 </wgt>
<wgt id='47'> +5.2871940e+02 </wgt>
<wgt id='48'> +5.1352815e+02 </wgt>
<wgt id='49'> +5.0114264e+02 </wgt>
<wgt id='50'> +6.1950172e+02 </wgt>
<wgt id='51'> +4.9471886e+02 </wgt>
<wgt id='52'> +5.0395497e+02 </wgt>
<wgt id='53'> +5.0087752e+02 </wgt>
<wgt id='54'> +5.0893400e+02 </wgt>
<wgt id='55'> +4.5565101e+02 </wgt>
<wgt id='56'> +4.5790320e+02 </wgt>
<wgt id='57'> +4.9417719e+02 </wgt>
<wgt id='58'> +4.9517429e+02 </wgt>
<wgt id='59'> +5.1324648e+02 </wgt>
<wgt id='60'> +4.9760679e+02 </wgt>
<wgt id='61'> +4.6267712e+02 </wgt>
<wgt id='62'> +4.9944384e+02 </wgt>
<wgt id='63'> +5.0578898e+02 </wgt>
<wgt id='64'> +4.8963966e+02 </wgt>
<wgt id='65'> +5.8592559e+02 </wgt>
<wgt id='66'> +4.9650940e+02 </wgt>
<wgt id='67'> +5.0903236e+02 </wgt>
<wgt id='68'> +5.5659975e+02 </wgt>
<wgt id='69'> +5.0906327e+02 </wgt>
<wgt id='70'> +4.9560100e+02 </wgt>
<wgt id='71'> +5.1254355e+02 </wgt>
<wgt id='72'> +4.7068568e+02 </wgt>
<wgt id='73'> +4.9076940e+02 </wgt>
<wgt id='74'> +5.3413137e+02 </wgt>
<wgt id='75'> +5.1946724e+02 </wgt>
<wgt id='76'> +4.8935705e+02 </wgt>
<wgt id='77'> +4.9415448e+02 </wgt>
<wgt id='78'> +4.8893387e+02 </wgt>
<wgt id='79'> +4.9430613e+02 </wgt>
<wgt id='80'> +4.9422607e+02 </wgt>
<wgt id='81'> +4.9193187e+02 </wgt>
<wgt id='82'> +5.0818735e+02 </wgt>
<wgt id='83'> +5.2002938e+02 </wgt>
<wgt id='84'> +5.5710909e+02 </wgt>
<wgt id='85'> +5.2671549e+02 </wgt>
<wgt id='86'> +5.0976321e+02 </wgt>
<wgt id='87'> +5.0892685e+02 </wgt>
<wgt id='88'> +5.1569718e+02 </wgt>
<wgt id='89'> +5.1881431e+02 </wgt>
<wgt id='90'> +5.1411324e+02 </wgt>
<wgt id='91'> +5.2918919e+02 </wgt>
<wgt id='92'> +4.4594201e+02 </wgt>
<wgt id='93'> +5.0336239e+02 </wgt>
<wgt id='94'> +4.9209664e+02 </wgt>
<wgt id='95'> +4.8258010e+02 </wgt>
<wgt id='96'> +5.5796157e+02 </wgt>
<wgt id='97'> +5.0331585e+02 </wgt>
<wgt id='98'> +4.8752061e+02 </wgt>
<wgt id='99'> +4.8268955e+02 </wgt>
<wgt id='100'> +4.7678160e+02 </wgt>
<wgt id='101'> +5.5672215e+02 </wgt>
<wgt id='102'> +5.1477534e+02 </wgt>
<wgt id='103'> +5.5406781e+02 </wgt>
<wgt id='104'> +5.1176047e+02 </wgt>
<wgt id='105'> +5.1614039e+02 </wgt>
<wgt id='106'> +4.4795514e+02 </wgt>
<wgt id='107'> +4.7828294e+02 </wgt>
<wgt id='108'> +4.3632812e+02 </wgt>
<wgt id='109'> +4.6473954e+02 </wgt>
<wgt id='110'> +5.0012742e+02 </wgt>
<wgt id='111'> +4.8562778e+02 </wgt>
<wgt id='112'> +4.7241995e+02 </wgt>
<wgt id='113'> +4.5763007e+02 </wgt>
<wgt id='114'> +4.8491728e+02 </wgt>
<wgt id='115'> +4.8342272e+02 </wgt>
<wgt id='116'> +5.2407254e+02 </wgt>
<wgt id='117'> +5.0284714e+02 </wgt>
<wgt id='118'> +5.3332236e+02 </wgt>
<wgt id='119'> +4.8223427e+02 </wgt>
<wgt id='120'> +4.9010066e+02 </wgt>
<wgt id='121'> +4.8578078e+02 </wgt>
<wgt id='122'> +4.9638163e+02 </wgt>
<wgt id='123'> +5.1450879e+02 </wgt>
<wgt id='124'> +5.6012930e+02 </wgt>
<wgt id='125'> +5.6114027e+02 </wgt>
<wgt id='126'> +5.2947228e+02 </wgt>
<wgt id='127'> +5.2386207e+02 </wgt>
<wgt id='128'> +4.5915312e+02 </wgt>
<wgt id='129'> +5.7378367e+02 </wgt>
<wgt id='130'> +5.1043733e+02 </wgt>
<wgt id='131'> +5.3532650e+02 </wgt>
<wgt id='132'> +5.1600580e+02 </wgt>
<wgt id='133'> +5.1638617e+02 </wgt>
<wgt id='134'> +4.8133063e+02 </wgt>
<wgt id='135'> +5.1560194e+02 </wgt>
<wgt id='136'> +5.0025705e+02 </wgt>
<wgt id='137'> +4.8326399e+02 </wgt>
<wgt id='138'> +4.7753599e+02 </wgt>
<wgt id='139'> +5.2086851e+02 </wgt>
<wgt id='140'> +5.2580278e+02 </wgt>
<wgt id='141'> +5.1051366e+02 </wgt>
<wgt id='142'> +4.8622143e+02 </wgt>
<wgt id='143'> +5.0907414e+02 </wgt>
<wgt id='144'> +4.9387858e+02 </wgt>
<wgt id='145'> +5.0525107e+02 </wgt>
</rwgt>
</event>
<event>
 4      1 +5.0481800e+02 1.73462300e+02 7.54677100e-03 1.17428500e-01
       21 -1    0    0  503  502 +0.0000000000e+00 +0.0000000000e+00 +8.9560735095e+02 8.9560735095e+02 0.0000000000e+00 0.0000e+00 -1.0000e+00
       21 -1    0    0  501  503 -0.0000000000e+00 -0.0000000000e+00 -9.2772207021e+01 9.2772207021e+01 0.0000000000e+00 0.0000e+00 -1.0000e+00
        6  1    1    2  501    0 +1.1019443490e+01 -6.2243871052e+00 +6.7268138917e+00 1.7359268750e+02 1.7300000000e+02 0.0000e+00 -1.0000e+00
       -6  1    1    2    0  502 -1.1019443490e+01 +6.2243871052e+00 +7.9610833003e+02 8.1478687046e+02 1.7300000000e+02 0.0000e+00 -1.0000e+00
<mgrwt>
<rscale>  2 0.17346230E+03</rscale>
<asrwt>0</asrwt>
<pdfrwt beam="1">  1       21 0.13778574E+00 0.17346230E+03</pdfrwt>
<pdfrwt beam="2">  1       21 0.14272648E-01 0.17346230E+03</pdfrwt>
<totfact> 0.16224560E+04</totfact>
</mgrwt>
<rwgt>
<wgt id='1'> +6.7325798e+02 </wgt>
<wgt id='2'> +6.8568873e+02 </wgt>
<wgt id='3'> +5.0481799e+02 </wgt>
<wgt id='4'> +6.7325797e+02 </wgt>
<wgt id='5'> +4.1363768e+02 </wgt>
<wgt id='6'> +6.2252220e+02 </wgt>
<wgt id='7'> +6.3441568e+02 </wgt>
<wgt id='8'> +4.5937893e+02 </wgt>
<wgt id='9'> +6.2252220e+02 </wgt>
<wgt id='10'> +3.7655937e+02 </wgt>
<wgt id='11'> +5.6648849e+02 </wgt>
<wgt id='12'> +5.7760771e+02 </wgt>
<wgt id='13'> +4.1845559e+02 </wgt>
<wgt id='14'> +5.6648848e+02 </wgt>
<wgt id='15'> +3.4365376e+02 </wgt>
<wgt id='16'> +5.4596084e+02 </wgt>
<wgt id='17'> +5.5503254e+02 </wgt>
<wgt id='18'> +4.2363070e+02 </wgt>
<wgt id='19'> +5.4596084e+02 </wgt>
<wgt id='20'> +3.5111582e+02 </wgt>
<wgt id='21'> +5.1352943e+02 </wgt>
<wgt id='22'> +3.8549936e+02 </wgt>
<wgt id='23'> +5.0481799e+02 </wgt>
<wgt id='24'> +3.1964194e+02 </wgt>
<wgt id='25'> +4.5937893e+02 </wgt>
<wgt id='26'> +4.6754607e+02 </wgt>
<wgt id='27'> +3.5115752e+02 </wgt>
<wgt id='28'> +4.5937893e+02 </wgt>
<wgt id='29'> +2.9171006e+02 </wgt>
<wgt id='30'> +4.5815675e+02 </wgt>
<wgt id='31'> +4.6505187e+02 </wgt>
<wgt id='32'> +3.6086387e+02 </wgt>
<wgt id='33'> +4.5815675e+02 </wgt>
<wgt id='34'> +3.0176621e+02 </wgt>
<wgt id='35'> +4.2363070e+02 </wgt>
<wgt id='36'> +4.3027716e+02 </wgt>
<wgt id='37'> +3.2838222e+02 </wgt>
<wgt id='38'> +4.2363070e+02 </wgt>
<wgt id='39'> +2.7471601e+02 </wgt>
<wgt id='40'> +3.8549937e+02 </wgt>
<wgt id='41'> +3.9174852e+02 </wgt>
<wgt id='42'> +2.9912860e+02 </wgt>
<wgt id='43'> +3.8549936e+02 </wgt>
<wgt id='44'> +2.5070997e+02 </wgt>
<wgt id='45'> +5.0481800e+02 </wgt>
<wgt id='46'> +5.1930509e+02 </wgt>
<wgt id='47'> +5.1991283e+02 </wgt>
<wgt id='48'> +5.0724999e+02 </wgt>
<wgt id='49'> +4.8541253e+02 </wgt>
<wgt id='50'> +6.0767227e+02 </wgt>
<wgt id='51'> +4.8538217e+02 </wgt>
<wgt id='52'> +4.9624324e+02 </wgt>
<wgt id='53'> +4.9810187e+02 </wgt>
<wgt id='54'> +5.2257093e+02 </wgt>
<wgt id='55'> +5.0504015e+02 </wgt>
<wgt id='56'> +4.6330154e+02 </wgt>
<wgt id='57'> +5.1924654e+02 </wgt>
<wgt id='58'> +4.7966398e+02 </wgt>
<wgt id='59'> +5.3668956e+02 </wgt>
<wgt id='60'> +5.0602059e+02 </wgt>
<wgt id='61'> +4.4033848e+02 </wgt>
<wgt id='62'> +4.8560225e+02 </wgt>
<wgt id='63'> +5.1496467e+02 </wgt>
<wgt id='64'> +4.9837019e+02 </wgt>
<wgt id='65'> +5.3239249e+02 </wgt>
<wgt id='66'> +4.9981475e+02 </wgt>
<wgt id='67'> +5.0711879e+02 </wgt>
<wgt id='68'> +5.7487003e+02 </wgt>
<wgt id='69'> +5.1736642e+02 </wgt>
<wgt id='70'> +5.0822288e+02 </wgt>
<wgt id='71'> +4.9797753e+02 </wgt>
<wgt id='72'> +4.7829621e+02 </wgt>
<wgt id='73'> +4.7556521e+02 </wgt>
<wgt id='74'> +5.4884475e+02 </wgt>
<wgt id='75'> +5.2421671e+02 </wgt>
<wgt id='76'> +5.0635674e+02 </wgt>
<wgt id='77'> +4.9132604e+02 </wgt>
<wgt id='78'> +4.6413882e+02 </wgt>
<wgt id='79'> +5.1132281e+02 </wgt>
<wgt id='80'> +4.7634962e+02 </wgt>
<wgt id='81'> +5.0136458e+02 </wgt>
<wgt id='82'> +4.8892380e+02 </wgt>
<wgt id='83'> +5.0633987e+02 </wgt>
<wgt id='84'> +5.2848197e+02 </wgt>
<wgt id='85'> +4.9491335e+02 </wgt>
<wgt id='86'> +5.1412146e+02 </wgt>
<wgt id='87'> +5.0652964e+02 </wgt>
<wgt id='88'> +5.0088817e+02 </wgt>
<wgt id='89'> +4.8824392e+02 </wgt>
<wgt id='90'> +5.0366442e+02 </wgt>
<wgt id='91'> +4.9183081e+02 </wgt>
<wgt id='92'> +4.6151078e+02 </wgt>
<wgt id='93'> +5.0484217e+02 </wgt>
<wgt id='94'> +4.7929899e+02 </wgt>
<wgt id='95'> +5.1232693e+02 </wgt>
<wgt id='96'> +5.3710512e+02 </wgt>
<wgt id='97'> +4.8476662e+02 </wgt>
<wgt id='98'> +5.0801521e+02 </wgt>
<wgt id='99'> +4.5881933e+02 </wgt>
<wgt id='100'> +4.3795709e+02 </wgt>
<wgt id='101'> +5.7361827e+02 </wgt>
<wgt id='102'> +5.3931269e+02 </wgt>
<wgt id='103'> +5.2680393e+02 </wgt>
<wgt id='104'> +5.1979572e+02 </wgt>
<wgt id='105'> +5.2041670e+02 </wgt>
<wgt id='106'> +4.6644222e+02 </wgt>
<wgt id='107'> +4.7759188e+02 </wgt>
<wgt id='108'> +4.5035017e+02 </wgt>
<wgt id='109'> +4.8273953e+02 </wgt>
<wgt id='110'> +4.8893651e+02 </wgt>
<wgt id='111'> +4.9173466e+02 </wgt>
<wgt id='112'> +4.9280662e+02 </wgt>
<wgt id='113'> +4.8330419e+02 </wgt>
<wgt id='114'> +5.0404430e+02 </wgt>
<wgt id='115'> +4.7004220e+02 </wgt>
<wgt id='116'> +5.3543654e+02 </wgt>
<wgt id='117'> +4.9535376e+02 </wgt>
<wgt id='118'> +5.3061398e+02 </wgt>
<wgt id='119'> +5.1159887e+02 </wgt>
<wgt id='120'> +4.9939800e+02 </wgt>
<wgt id='121'> +4.9904928e+02 </wgt>
<wgt id='122'> +4.9829719e+02 </wgt>
<wgt id='123'> +5.0140677e+02 </wgt>
<wgt id='124'> +5.6857752e+02 </wgt>
<wgt id='125'> +5.8920037e+02 </wgt>
<wgt id='126'> +5.1228099e+02 </wgt>
<wgt id='127'> +5.0806407e+02 </wgt>
<wgt id='128'> +4.6360559e+02 </wgt>
<wgt id='129'> +5.5280602e+02 </wgt>
<wgt id='130'> +4.9184727e+02 </wgt>
<wgt id='131'> +5.0594978e+02 </wgt>
<wgt id='132'> +5.4346131e+02 </wgt>
<wgt id='133'> +5.3196737e+02 </wgt>
<wgt id='134'> +5.0378604e+02 </wgt>
<wgt id='135'> +5.0203385e+02 </wgt>
<wgt id='136'> +5.5107357e+02 </wgt>
<wgt id='137'> +4.9534372e+02 </wgt>
<wgt id='138'> +4.8810572e+02 </wgt>
<wgt id='139'> +5.2125455e+02 </wgt>
<wgt id='140'> +5.0894604e+02 </wgt>
<wgt id='141'> +5.3109222e+02 </wgt>
<wgt id='142'> +4.3497839e+02 </wgt>
<wgt id='143'> +5.1823540e+02 </wgt>
<wgt id='144'> +4.8114250e+02 </wgt>
<wgt id='145'> +4.8818462e+02 </wgt>
</rwgt>
</event>
<event>
 4      1 +5.0481800e+02 2.58021800e+02 7.54677100e-03 1.10833800e-01
       21 -1    0    0  503  502 +0.0000000000e+00 +0.0000000000e+00 +4.5294483918e+01 4.5294483918e+01 0.0000000000e+00 0.0000e+00 1.0000e+00
       21 -1    0    0  501  503 -0.0000000000e+00 -0.0000000000e+00 -1.6758753366e+03 1.6758753366e+03 0.0000000000e+00 0.0000e+00 1.0000e+00
        6  1    1    2  501    0 -1.5522630207e+02 -1.1203139851e+02 -1.1170445088e+03 1.1464570091e+03 1.7300000000e+02 0.0000e+00 1.0000e+00
       -6  1    1    2    0  502 +1.5522630207e+02 +1.1203139851e+02 -5.1353634390e+02 5.7471281142e+02 1.7300000000e+02 0.0000e+00 1.0000e+00
<mgrwt>
<rscale>  2 0.25802178E+03</rscale>
<asrwt>0</asrwt>
<pdfrwt beam="1">  1       21 0.69683823E-02 0.25802178E+03</pdfrwt>
<pdfrwt beam="2">  1       21 0.25782697E+00 0.25802178E+03</pdfrwt>
<totfact> 0.86191186E+03</totfact>
</mgrwt>
<rwgt>
<wgt id='1'> +6.9369114e+02 </wgt>
<wgt id='2'> +5.6953214e+02 </wgt>
<wgt id='3'> +5.0481800e+02 </wgt>
<wgt id='4'> +6.9369114e+02 </wgt>
<wgt id='5'> +4.9041502e+02 </wgt>
<wgt id='6'> +6.0987764e+02 </wgt>
<wgt id='7'> +4.9852062e+02 </wgt>
<wgt id='8'> +4.4294634e+02 </wgt>
<wgt id='9'> +6.0987764e+02 </wgt>
<wgt id='10'> +4.3055689e+02 </wgt>
<wgt id='11'> +5.3512963e+02 </wgt>
<wgt id='12'> +4.3906695e+02 </wgt>
<wgt id='13'> +3.9106018e+02 </wgt>
<wgt id='14'> +5.3512963e+02 </wgt>
<wgt id='15'> +3.8034226e+02 </wgt>
<wgt id='16'> +5.7419350e+02 </wgt>
<wgt id='17'> +4.7978608e+02 </wgt>
<wgt id='18'> +4.2758030e+02 </wgt>
<wgt id='19'> +5.7419349e+02 </wgt>
<wgt id='20'> +4.1591967e+02 </wgt>
<wgt id='21'> +4.1996446e+02 </wgt>
<wgt id='22'> +3.7517507e+02 </wgt>
<wgt id='23'> +5.0481800e+02 </wgt>
<wgt id='24'> +3.6515416e+02 </wgt>
<wgt id='25'> +4.4294634e+02 </wgt>
<wgt id='26'> +3.6987941e+02 </wgt>
<wgt id='27'> +3.3122755e+02 </wgt>
<wgt id='28'> +4.4294634e+02 </wgt>
<wgt id='29'> +3.2256726e+02 </wgt>
<wgt id='30'> +4.8634127e+02 </wgt>
<wgt id='31'> +4.0965640e+02 </wgt>
<wgt id='32'> +3.6680360e+02 </wgt>
<wgt id='33'> +4.8634127e+02 </wgt>
<wgt id='34'> +3.5719306e+02 </wgt>
<wgt id='35'> +4.2758030e+02 </wgt>
<wgt id='36'> +3.5857882e+02 </wgt>
<wgt id='37'> +3.2184731e+02 </wgt>
<wgt id='38'> +4.2758030e+02 </wgt>
<wgt id='39'> +3.1359548e+02 </wgt>
<wgt id='40'> +3.7517507e+02 </wgt>
<wgt id='41'> +3.1581464e+02 </wgt>
<wgt id='42'> +2.8414653e+02 </wgt>
<wgt id='43'> +3.7517507e+02 </wgt>
<wgt id='44'> +2.7702173e+02 </wgt>
<wgt id='45'> +5.0481800e+02 </wgt>
<wgt id='46'> +5.1364027e+02 </wgt>
<wgt id='47'> +5.5717011e+02 </wgt>
<wgt id='48'> +5.0419510e+02 </wgt>
<wgt id='49'> +4.4912056e+02 </wgt>
<wgt id='50'> +5.9464719e+02 </wgt>
<wgt id='51'> +4.7211224e+02 </wgt>
<wgt id='52'> +4.3530813e+02 </wgt>
<wgt id='53'> +5.3429120e+02 </wgt>
<wgt id='54'> +5.4001769e+02 </wgt>
<wgt id='55'> +6.0760801e+02 </wgt>
<wgt id='56'> +4.9212964e+02 </wgt>
<wgt id='57'> +5.4376520e+02 </wgt>
<wgt id='58'> +4.3595231e+02 </wgt>
<wgt id='59'> +5.4608804e+02 </wgt>
<wgt id='60'> +4.8897151e+02 </wgt>
<wgt id='61'> +4.0597518e+02 </wgt>
<wgt id='62'> +4.4339607e+02 </wgt>
<wgt id='63'> +5.3946925e+02 </wgt>
<wgt id='64'> +5.0712644e+02 </wgt>
<wgt id='65'> +4.1587162e+02 </wgt>
<wgt id='66'> +5.2160807e+02 </wgt>
<wgt id='67'> +5.0627161e+02 </wgt>
<wgt id='68'> +6.8059449e+02 </wgt>
<wgt id='69'> +5.8530946e+02 </wgt>
<wgt id='70'> +6.0629857e+02 </wgt>
<wgt id='71'> +4.4388049e+02 </wgt>
<wgt id='72'> +4.3179386e+02 </wgt>
<wgt id='73'> +4.4425203e+02 </wgt>
<wgt id='74'> +6.2787781e+02 </wgt>
<wgt id='75'> +5.9921545e+02 </wgt>
<wgt id='76'> +5.1965826e+02 </wgt>
<wgt id='77'> +4.5096028e+02 </wgt>
<wgt id='78'> +4.1525022e+02 </wgt>
<wgt id='79'> +5.6748028e+02 </wgt>
<wgt id='80'> +4.1410900e+02 </wgt>
<wgt id='81'> +5.4792679e+02 </wgt>
<wgt id='82'> +5.0416182e+02 </wgt>
<wgt id='83'> +5.0214987e+02 </wgt>
<wgt id='84'> +4.6592340e+02 </wgt>
<wgt id='85'> +4.2930834e+02 </wgt>
<wgt id='86'> +5.5274842e+02 </wgt>
<wgt id='87'> +4.8319405e+02 </wgt>
<wgt id='88'> +5.1106468e+02 </wgt>
<wgt id='89'> +3.6267874e+02 </wgt>
<wgt id='90'> +4.3069039e+02 </wgt>
<wgt id='91'> +3.9902095e+02 </wgt>
<wgt id='92'> +4.7652033e+02 </wgt>
<wgt id='93'> +5.2024533e+02 </wgt>
<wgt id='94'> +4.5008166e+02 </wgt>
<wgt id='95'> +5.2781385e+02 </wgt>
<wgt id='96'> +5.2478471e+02 </wgt>
<wgt id='97'> +4.3469436e+02 </wgt>
<wgt id='98'> +5.8838934e+02 </wgt>
<wgt id='99'> +3.9247429e+02 </wgt>
<wgt id='100'> +3.4374203e+02 </wgt>
<wgt id='101'> +6.0093864e+02 </wgt>
<wgt id='102'> +5.8617226e+02 </wgt>
<wgt id='103'> +4.4431560e+02 </wgt>
<wgt id='104'> +5.6295981e+02 </wgt>
<wgt id='105'> +5.1454742e+02 </wgt>
<wgt id='106'> +5.0905742e+02 </wgt>
<wgt id='107'> +5.1099516e+02 </wgt>
<wgt id='108'> +4.7584368e+02 </wgt>
<wgt id='109'> +5.0419739e+02 </wgt>
<wgt id='110'> +4.2914897e+02 </wgt>
<wgt id='111'> +4.8046309e+02 </wgt>
<wgt id='112'> +5.3248294e+02 </wgt>
<wgt id='113'> +5.8468502e+02 </wgt>
<wgt id='114'> +5.1499336e+02 </wgt>
<wgt id='115'> +4.7368163e+02 </wgt>
<wgt id='116'> +5.7196173e+02 </wgt>
<wgt id='117'> +5.0681544e+02 </wgt>
<wgt id='118'> +5.0569569e+02 </wgt>
<wgt id='119'> +5.6795005e+02 </wgt>
<wgt id='120'> +5.0141273e+02 </wgt>
<wgt id='121'> +4.7375555e+02 </wgt>
<wgt id='122'> +4.8269863e+02 </wgt>
<wgt id='123'> +4.5950671e+02 </wgt>
<wgt id='124'> +5.6610377e+02 </wgt>
<wgt id='125'> +6.9132602e+02 </wgt>
<wgt id='126'> +4.8217866e+02 </wgt>
<wgt id='127'> +4.6105142e+02 </wgt>
<wgt id='128'> +5.0470788e+02 </wgt>
<wgt id='129'> +4.8694227e+02 </wgt>
<wgt id='130'> +5.1927717e+02 </wgt>
<wgt id='131'> +4.3616827e+02 </wgt>
<wgt id='132'> +5.4154191e+02 </wgt>
<wgt id='133'> +5.6125234e+02 </wgt>
<wgt id='134'> +5.5290295e+02 </wgt>
<wgt id='135'> +4.7117165e+02 </wgt>
<wgt id='136'> +6.1473334e+02 </wgt>
<wgt id='137'> +5.7776682e+02 </wgt>
<wgt id='138'> +5.4465832e+02 </wgt>
<wgt id='139'> +5.2255217e+02 </wgt>
<wgt id='140'> +4.8686368e+02 </wgt>
<wgt id='141'> +6.3112195e+02 </wgt>
<wgt id='142'> +2.7685949e+02 </wgt>
<wgt id='143'> +5.1056380e+02 </wgt>
<wgt id='144'> +4.3869341e+02 </wgt>
<wgt id='145'> +4.5370051e+02 </wgt>
</rwgt>
</event>
<event>
 4      1 +5.0481800e+02 2.83122400e+02 7.54677100e-03 1.09399600e-01
       21 -1    0    0  501  502 +0.0000000000e+00 +0.0000000000e+00 +6.5300581749e+02 6.5300581749e+02 0.0000000000e+00 0.0000e+00 1.0000e+00
       21 -1    0    0  502  503 -0.0000000000e+00 -0.0000000000e+00 -1.5727507774e+02 1.5727507774e+02 0.0000000000e+00 0.0000e+00 1.0000e+00
        6  1    1    2  501    0 +8.4218014106e+01 +2.0769362312e+02 +4.3767802054e+02 5.2126803533e+02 1.7300000000e+02 0.0000e+00 1.0000e+00
       -6  1    1    2    0  503 -8.4218014106e+01 -2.0769362312e+02 +5.8052719198e+01 2.8901285991e+02 1.7300000000e+02 0.0000e+00 1.0000e+00
<mgrwt>
<rscale>  2 0.28312244E+03</rscale>
<asrwt>0</asrwt>
<pdfrwt beam="1">  1       21 0.10046243E+00 0.28312244E+03</pdfrwt>
<pdfrwt beam="2">  1       21 0.24196166E-01 0.28312244E+03</pdfrwt>
<totfact> 0.12426748E+04</totfact>
</mgrwt>
<rwgt>
<wgt id='1'> +6.6331478e+02 </wgt>
<wgt id='2'> +5.2257723e+02 </wgt>
<wgt id='3'> +5.0481800e+02 </wgt>
<wgt id='4'> +6.6331478e+02 </wgt>
<wgt id='5'> +4.8164507e+02 </wgt>
<wgt id='6'> +6.0697811e+02 </wgt>
<wgt id='7'> +4.7646443e+02 </wgt>
<wgt id='8'> +4.6041027e+02 </wgt>
<wgt id='9'> +6.0697811e+02 </wgt>
<wgt id='10'> +4.3946274e+02 </wgt>
<wgt id='11'> +5.5358358e+02 </wgt>
<wgt id='12'> +4.3550993e+02 </wgt>
<wgt id='13'> +4.2098430e+02 </wgt>
<wgt id='14'> +5.5358358e+02 </wgt>
<wgt id='15'> +4.0202868e+02 </wgt>
<wgt id='16'> +5.5167268e+02 </wgt>
<wgt id='17'> +4.4264479e+02 </wgt>
<wgt id='18'> +4.2836418e+02 </wgt>
<wgt id='19'> +5.5167268e+02 </wgt>
<wgt id='20'> +4.0967087e+02 </wgt>
<wgt id='21'> +4.0358532e+02 </wgt>
<wgt id='22'> +3.9068193e+02 </wgt>
<wgt id='23'> +5.0481800e+02 </wgt>
<wgt id='24'> +3.7379202e+02 </wgt>
<wgt id='25'> +4.6041027e+02 </wgt>
<wgt id='26'> +3.6889514e+02 </wgt>
<wgt id='27'> +3.5722695e+02 </wgt>
<wgt id='28'> +4.6041027e+02 </wgt>
<wgt id='29'> +3.4195189e+02 </wgt>
<wgt id='30'> +4.6812280e+02 </wgt>
<wgt id='31'> +3.7974322e+02 </wgt>
<wgt id='32'> +3.6804745e+02 </wgt>
<wgt id='33'> +4.6812280e+02 </wgt>
<wgt id='34'> +3.5270329e+02 </wgt>
<wgt id='35'> +4.2836418e+02 </wgt>
<wgt id='36'> +3.4623426e+02 </wgt>
<wgt id='37'> +3.3567112e+02 </wgt>
<wgt id='38'> +4.2836418e+02 </wgt>
<wgt id='39'> +3.2181365e+02 </wgt>
<wgt id='40'> +3.9068192e+02 </wgt>
<wgt id='41'> +3.1647370e+02 </wgt>
<wgt id='42'> +3.0692685e+02 </wgt>
<wgt id='43'> +3.9068193e+02 </wgt>
<wgt id='44'> +2.9440110e+02 </wgt>
<wgt id='45'> +5.0481800e+02 </wgt>
<wgt id='46'> +5.1864667e+02 </wgt>
<wgt id='47'> +5.2487548e+02 </wgt>
<wgt id='48'> +5.1071208e+02 </wgt>
<wgt id='49'> +4.9468472e+02 </wgt>
<wgt id='50'> +6.1510463e+02 </wgt>
<wgt id='51'> +4.9119317e+02 </wgt>
<wgt id='52'> +5.0153391e+02 </wgt>
<wgt id='53'> +4.9871715e+02 </wgt>
<wgt id='54'> +5.1440480e+02 </wgt>
<wgt id='55'> +4.7653063e+02 </wgt>
<wgt id='56'> +4.5860140e+02 </wgt>
<wgt id='57'> +5.0550326e+02 </wgt>
<wgt id='58'> +4.8828388e+02 </wgt>
<wgt id='59'> +5.2436381e+02 </wgt>
<wgt id='60'> +5.0211710e+02 </wgt>
<wgt id='61'> +4.4383046e+02 </wgt>
<wgt id='62'> +4.9417689e+02 </wgt>
<wgt id='63'> +5.0854386e+02 </wgt>
<wgt id='64'> +4.9289981e+02 </wgt>
<wgt id='65'> +5.6344435e+02 </wgt>
<wgt id='66'> +4.9790744e+02 </wgt>
<wgt id='67'> +5.0791140e+02 </wgt>
<wgt id='68'> +5.6301439e+02 </wgt>
<wgt id='69'> +5.1245100e+02 </wgt>
<wgt id='70'> +4.9987290e+02 </wgt>
<wgt id='71'> +5.0727738e+02 </wgt>
<wgt id='72'> +4.7477724e+02 </wgt>
<wgt id='73'> +4.8438325e+02 </wgt>
<wgt id='74'> +5.3983706e+02 </wgt>
<wgt id='75'> +5.2033681e+02 </wgt>
<wgt id='76'> +4.9690125e+02 </wgt>
<wgt id='77'> +4.9408180e+02 </wgt>
<wgt id='78'> +4.7823496e+02 </wgt>
<wgt id='79'> +5.0135831e+02 </wgt>
<wgt id='80'> +4.8751274e+02 </wgt>
<wgt id='81'> +4.9508553e+02 </wgt>
<wgt id='82'> +4.9755499e+02 </wgt>
<wgt id='83'> +5.1429511e+02 </wgt>
<wgt id='84'> +5.4509566e+02 </wgt>
<wgt id='85'> +5.1302188e+02 </wgt>
<wgt id='86'> +5.1145429e+02 </wgt>
<wgt id='87'> +5.0830143e+02 </wgt>
<wgt id='88'> +5.1015698e+02 </wgt>
<wgt id='89'> +5.0727178e+02 </wgt>
<wgt id='90'> +5.1135102e+02 </wgt>
<wgt id='91'> +5.1373844e+02 </wgt>
<wgt id='92'> +4.5243837e+02 </wgt>
<wgt id='93'> +5.0421434e+02 </wgt>
<wgt id='94'> +4.8645269e+02 </wgt>
<wgt id='95'> +4.9592143e+02 </wgt>
<wgt id='96'> +5.4778350e+02 </wgt>
<wgt id='97'> +4.9566556e+02 </wgt>
<wgt id='98'> +4.9671564e+02 </wgt>
<wgt id='99'> +4.7324815e+02 </wgt>
<wgt id='100'> +4.6052662e+02 </wgt>
<wgt id='101'> +5.6461619e+02 </wgt>
<wgt id='102'> +5.2605926e+02 </wgt>
<wgt id='103'> +5.4312120e+02 </wgt>
<wgt id='104'> +5.1485682e+02 </wgt>
<wgt id='105'> +5.1783203e+02 </wgt>
<wgt id='106'> +4.5510605e+02 </wgt>
<wgt id='107'> +4.7661203e+02 </wgt>
<wgt id='108'> +4.4166850e+02 </wgt>
<wgt id='109'> +4.7230555e+02 </wgt>
<wgt id='110'> +4.9576410e+02 </wgt>
<wgt id='111'> +4.8870170e+02 </wgt>
<wgt id='112'> +4.7891841e+02 </wgt>
<wgt id='113'> +4.6763779e+02 </wgt>
<wgt id='114'> +4.9181886e+02 </wgt>
<wgt id='115'> +4.7757591e+02 </wgt>
<wgt id='116'> +5.2927224e+02 </wgt>
<wgt id='117'> +4.9913785e+02 </wgt>
<wgt id='118'> +5.3301871e+02 </wgt>
<wgt id='119'> +4.9333707e+02 </wgt>
<wgt id='120'> +4.9383850e+02 </wgt>
<wgt id='121'> +4.9184806e+02 </wgt>
<wgt id='122'> +4.9750809e+02 </wgt>
<wgt id='123'> +5.0952988e+02 </wgt>
<wgt id='124'> +5.6436486e+02 </wgt>
<wgt id='125'> +5.7224464e+02 </wgt>
<wgt id='126'> +5.2234163e+02 </wgt>
<wgt id='127'> +5.1767451e+02 </wgt>
<wgt id='128'> +4.5984966e+02 </wgt>
<wgt id='129'> +5.6502723e+02 </wgt>
<wgt id='130'> +5.0424099e+02 </wgt>
<wgt id='131'> +5.2336562e+02 </wgt>
<wgt id='132'> +5.2920010e+02 </wgt>
<wgt id='133'> +5.2319773e+02 </wgt>
<wgt id='134'> +4.9125775e+02 </wgt>
<wgt id='135'> +5.1004659e+02 </wgt>
<wgt id='136'> +5.2275606e+02 </wgt>
<wgt id='137'> +4.8837102e+02 </wgt>
<wgt id='138'> +4.8264056e+02 </wgt>
<wgt id='139'> +5.2114581e+02 </wgt>
<wgt id='140'> +5.1770283e+02 </wgt>
<wgt id='141'> +5.1859493e+02 </wgt>
<wgt id='142'> +4.6753144e+02 </wgt>
<wgt id='143'> +5.1386768e+02 </wgt>
<wgt id='144'> +4.8860168e+02 </wgt>
<wgt id='145'> +4.9891897e+02 </wgt>
</rwgt>
</event>
<event>
 4      1 +5.0481800e+02 1.81210500e+02 7.54677100e-03 1.16663700e-01
       21 -1    0    0  503  502 +0.0000000000e+00 +0.0000000000e+00 +6.3167069534e+02 6.3167069534e+02 0.0000000000e+00 0.0000e+00 -1.0000e+00
       21 -1    0    0  501  503 -0.0000000000e+00 -0.0000000000e+00 -6.5015933541e+01 6.5015933541e+01 0.0000000000e+00 0.0000e+00 -1.0000e+00
        6  1    1    2  501    0 -3.6432576670e+01 +3.9760623214e+01 +1.2737586580e+02 2.2149909930e+02 1.7300000000e+02 0.0000e+00 -1.0000e+00
       -6  1    1    2    0  502 +3.6432576670e+01 -3.9760623214e+01 +4.3927889600e+02 4.7518752958e+02 1.7300000000e+02 0.0000e+00 -1.0000e+00
<mgrwt>
<rscale>  2 0.18121048E+03</rscale>
<asrwt>0</asrwt>
<pdfrwt beam="1">  1       21 0.97180103E-01 0.18121048E+03</pdfrwt>
<pdfrwt beam="2">  1       21 0.10002452E-01 0.18121048E+03</pdfrwt>
<totfact> 0.71607435E+04</totfact>
</mgrwt>
<rwgt>
<wgt id='1'> +6.5113131e+02 </wgt>
<wgt id='2'> +7.1042529e+02 </wgt>
<wgt id='3'> +5.0481800e+02 </wgt>
<wgt id='4'> +6.5113130e+02 </wgt>
<wgt id='5'> +4.8519320e+02 </wgt>
<wgt id='6'> +6.2122122e+02 </wgt>
<wgt id='7'> +6.8036626e+02 </wgt>
<wgt id='8'> +4.7258987e+02 </wgt>
<wgt id='9'> +6.2122121e+02 </wgt>
<wgt id='10'> +4.5383255e+02 </wgt>
<wgt id='11'> +5.8156179e+02 </wgt>
<wgt id='12'> +6.4000070e+02 </wgt>
<wgt id='13'> +4.4191625e+02 </wgt>
<wgt id='14'> +5.8156178e+02 </wgt>
<wgt id='15'> +4.2437573e+02 </wgt>
<wgt id='16'> +5.2912360e+02 </wgt>
<wgt id='17'> +5.7218072e+02 </wgt>
<wgt id='18'> +4.2423978e+02 </wgt>
<wgt id='19'> +5.2912359e+02 </wgt>
<wgt id='20'> +4.0899909e+02 </wgt>
<wgt id='21'> +5.4797100e+02 </wgt>
<wgt id='22'> +3.9715586e+02 </wgt>
<wgt id='23'> +5.0481800e+02 </wgt>
<wgt id='24'> +3.8256327e+02 </wgt>
<wgt id='25'> +4.7258988e+02 </wgt>
<wgt id='26'> +5.1546034e+02 </wgt>
<wgt id='27'> +3.7137831e+02 </wgt>
<wgt id='28'> +4.7258987e+02 </wgt>
<wgt id='29'> +3.5773231e+02 </wgt>
<wgt id='30'> +4.4466576e+02 </wgt>
<wgt id='31'> +4.7633860e+02 </wgt>
<wgt id='32'> +3.6167361e+02 </wgt>
<wgt id='33'> +4.4466576e+02 </wgt>
<wgt id='34'> +3.4938836e+02 </wgt>
<wgt id='35'> +4.2423979e+02 </wgt>
<wgt id='36'> +4.5618409e+02 </wgt>
<wgt id='37'> +3.3858398e+02 </wgt>
<wgt id='38'> +4.2423978e+02 </wgt>
<wgt id='39'> +3.2680551e+02 </wgt>
<wgt id='40'> +3.9715586e+02 </wgt>
<wgt id='41'> +4.2911907e+02 </wgt>
<wgt id='42'> +3.1660806e+02 </wgt>
<wgt id='43'> +3.9715586e+02 </wgt>
<wgt id='44'> +3.0559360e+02 </wgt>
<wgt id='45'> +5.0481800e+02 </wgt>
<wgt id='46'> +5.1319183e+02 </wgt>
<wgt id='47'> +5.1821868e+02 </wgt>
<wgt id='48'> +5.0663998e+02 </wgt>
<wgt id='49'> +4.9703874e+02 </wgt>
<wgt id='50'> +5.9090208e+02 </wgt>
<wgt id='51'> +4.9241070e+02 </wgt>
<wgt id='52'> +5.0348213e+02 </wgt>
<wgt id='53'> +4.9978439e+02 </wgt>
<wgt id='54'> +5.1280821e+02 </wgt>
<wgt id='55'> +4.8006637e+02 </wgt>
<wgt id='56'> +4.6524661e+02 </wgt>
<wgt id='57'> +5.0687724e+02 </wgt>
<wgt id='58'> +4.9698220e+02 </wgt>
<wgt id='59'> +5.2117274e+02 </wgt>
<wgt id='60'> +5.0293841e+02 </wgt>
<wgt id='61'> +4.5146019e+02 </wgt>
<wgt id='62'> +4.9464419e+02 </wgt>
<wgt id='63'> +5.0759199e+02 </wgt>
<wgt id='64'> +4.9751437e+02 </wgt>
<wgt id='65'> +5.5643948e+02 </wgt>
<wgt id='66'> +4.9599396e+02 </wgt>
<wgt id='67'> +5.0772944e+02 </wgt>
<wgt id='68'> +5.5305028e+02 </wgt>
<wgt id='69'> +5.0088864e+02 </wgt>
<wgt id='70'> +4.9990451e+02 </wgt>
<wgt id='71'> +5.0895399e+02 </wgt>
<wgt id='72'> +4.8989973e+02 </wgt>
<wgt id='73'> +4.9039636e+02 </wgt>
<wgt id='74'> +5.3125976e+02 </wgt>
<wgt id='75'> +5.1566294e+02 </wgt>
<wgt id='76'> +4.9929003e+02 </wgt>
<wgt id='77'> +4.9391817e+02 </wgt>
<wgt id='78'> +4.8500627e+02 </wgt>
<wgt id='79'> +4.9871413e+02 </wgt>
<wgt id='80'> +4.9170960e+02 </wgt>
<wgt id='81'> +4.9711658e+02 </wgt>
<wgt id='82'> +4.9934919e+02 </wgt>
<wgt id='83'> +5.0863295e+02 </wgt>
<wgt id='84'> +5.3808656e+02 </wgt>
<wgt id='85'> +5.1303565e+02 </wgt>
<wgt id='86'> +5.0609947e+02 </wgt>
<wgt id='87'> +5.0732045e+02 </wgt>
<wgt id='88'> +5.0554463e+02 </wgt>
<wgt id='89'> +5.0905276e+02 </wgt>
<wgt id='90'> +5.1292391e+02 </wgt>
<wgt id='91'> +5.1599085e+02 </wgt>
<wgt id='92'> +4.6692232e+02 </wgt>
<wgt id='93'> +5.0154864e+02 </wgt>
<wgt id='94'> +4.9258921e+02 </wgt>
<wgt id='95'> +4.9989991e+02 </wgt>
<wgt id='96'> +5.3631346e+02 </wgt>
<wgt id='97'> +4.9982260e+02 </wgt>
<wgt id='98'> +4.9424653e+02 </wgt>
<wgt id='99'> +4.7984471e+02 </wgt>
<wgt id='100'> +4.7457627e+02 </wgt>
<wgt id='101'> +5.5139306e+02 </wgt>
<wgt id='102'> +5.1522521e+02 </wgt>
<wgt id='103'> +5.3941341e+02 </wgt>
<wgt id='104'> +5.0798547e+02 </wgt>
<wgt id='105'> +5.2217173e+02 </wgt>
<wgt id='106'> +4.6620115e+02 </wgt>
<wgt id='107'> +4.8619890e+02 </wgt>
<wgt id='108'> +4.5146550e+02 </wgt>
<wgt id='109'> +4.7917567e+02 </wgt>
<wgt id='110'> +5.0106916e+02 </wgt>
<wgt id='111'> +4.9243871e+02 </wgt>
<wgt id='112'> +4.8218384e+02 </wgt>
<wgt id='113'> +4.7229061e+02 </wgt>
<wgt id='114'> +4.9863970e+02 </wgt>
<wgt id='115'> +4.8152434e+02 </wgt>
<wgt id='116'> +5.1839351e+02 </wgt>
<wgt id='117'> +5.0004285e+02 </wgt>
<wgt id='118'> +5.2521244e+02 </wgt>
<wgt id='119'> +4.9591711e+02 </wgt>
<wgt id='120'> +4.9419535e+02 </wgt>
<wgt id='121'> +4.9738478e+02 </wgt>
<wgt id='122'> +4.9958862e+02 </wgt>
<wgt id='123'> +5.0600336e+02 </wgt>
<wgt id='124'> +5.5263420e+02 </wgt>
<wgt id='125'> +5.5906320e+02 </wgt>
<wgt id='126'> +5.1779315e+02 </wgt>
<wgt id='127'> +5.1564984e+02 </wgt>
<wgt id='128'> +4.6203461e+02 </wgt>
<wgt id='129'> +5.6145506e+02 </wgt>
<wgt id='130'> +4.9904340e+02 </wgt>
<wgt id='131'> +5.2455373e+02 </wgt>
<wgt id='132'> +5.2730771e+02 </wgt>
<wgt id='133'> +5.1635163e+02 </wgt>
<wgt id='134'> +4.9175755e+02 </wgt>
<wgt id='135'> +5.1113368e+02 </wgt>
<wgt id='136'> +5.1987105e+02 </wgt>
<wgt id='137'> +4.8362676e+02 </wgt>
<wgt id='138'> +4.7196986e+02 </wgt>
<wgt id='139'> +5.1877946e+02 </wgt>
<wgt id='140'> +5.2007258e+02 </wgt>
<wgt id='141'> +5.1281944e+02 </wgt>
<wgt id='142'> +4.7880323e+02 </wgt>
<wgt id='143'> +5.1376589e+02 </wgt>
<wgt id='144'> +4.9638447e+02 </wgt>
<wgt id='145'> +5.0001435e+02 </wgt>
</rwgt>
</event>
<event>
 4      1 +5.0481800e+02 2.89678100e+02 7.54677100e-03 1.09051700e-01
       21 -1    0    0  501  502 +0.0000000000e+00 +0.0000000000e+00 +4.3519562373e+02 4.3519562373e+02 0.0000000000e+00 0.0000e+00 1.0000e+00
       21 -1    0    0  502  503 -0.0000000000e+00 -0.0000000000e+00 -2.0805455677e+02 2.0805455677e+02 0.0000000000e+00 0.0000e+00 1.0000e+00
        6  1    1    2  501    0 +1.9966761032e+02 +1.1881610579e+02 +2.0060853676e+02 3.5235948494e+02 1.7300000000e+02 0.0000e+00 1.0000e+00
       -6  1    1    2    0  503 -1.9966761032e+02 -1.1881610579e+02 +2.6532530208e+01 2.9089069556e+02 1.7300000000e+02 0.0000e+00 1.0000e+00
<mgrwt>
<rscale>  2 0.28967813E+03</rscale>
<asrwt>0</asrwt>
<pdfrwt beam="1">  1       21 0.66953173E-01 0.28967813E+03</pdfrwt>
<pdfrwt beam="2">  1       21 0.32008393E-01 0.28967813E+03</pdfrwt>
<totfact> 0.18245773E+04</totfact>
</mgrwt>
<rwgt>
<wgt id='1'> +6.5711084e+02 </wgt>
<wgt id='2'> +5.1264146e+02 </wgt>
<wgt id='3'> +5.0481800e+02 </wgt>
<wgt id='4'> +6.5711083e+02 </wgt>
<wgt id='5'> +4.9780776e+02 </wgt>
<wgt id='6'> +6.0626618e+02 </wgt>
<wgt id='7'> +4.7135891e+02 </wgt>
<wgt id='8'> +4.6421303e+02 </wgt>
<wgt id='9'> +6.0626617e+02 </wgt>
<wgt id='10'> +4.5781043e+02 </wgt>
<wgt id='11'> +5.5750123e+02 </wgt>
<wgt id='12'> +4.3424611e+02 </wgt>
<wgt id='13'> +4.2771863e+02 </wgt>
<wgt id='14'> +5.5750123e+02 </wgt>
<wgt id='15'> +4.2187001e+02 </wgt>
<wgt id='16'> +5.4715469e+02 </wgt>
<wgt id='17'> +4.3484238e+02 </wgt>
<wgt id='18'> +4.2855521e+02 </wgt>
<wgt id='19'> +5.4715468e+02 </wgt>
<wgt id='20'> +4.2291248e+02 </wgt>
<wgt id='21'> +3.9982492e+02 </wgt>
<wgt id='22'> +3.9408443e+02 </wgt>
<wgt id='23'> +5.0481800e+02 </wgt>
<wgt id='24'> +3.8893276e+02 </wgt>
<wgt id='25'> +4.6421303e+02 </wgt>
<wgt id='26'> +3.6834440e+02 </wgt>
<wgt id='27'> +3.6310323e+02 </wgt>
<wgt id='28'> +4.6421303e+02 </wgt>
<wgt id='29'> +3.5839958e+02 </wgt>
<wgt id='30'> +4.6449610e+02 </wgt>
<wgt id='31'> +3.7349671e+02 </wgt>
<wgt id='32'> +3.6835168e+02 </wgt>
<wgt id='33'> +4.6449610e+02 </wgt>
<wgt id='34'> +3.6373075e+02 </wgt>
<wgt id='35'> +4.2855521e+02 </wgt>
<wgt id='36'> +3.4341936e+02 </wgt>
<wgt id='37'> +3.3872336e+02 </wgt>
<wgt id='38'> +4.2855521e+02 </wgt>
<wgt id='39'> +3.3450609e+02 </wgt>
<wgt id='40'> +3.9408443e+02 </wgt>
<wgt id='41'> +3.1637998e+02 </wgt>
<wgt id='42'> +3.1209441e+02 </wgt>
<wgt id='43'> +3.9408443e+02 </wgt>
<wgt id='44'> +3.0824568e+02 </wgt>
<wgt id='45'> +5.0481800e+02 </wgt>
<wgt id='46'> +5.1431403e+02 </wgt>
<wgt id='47'> +5.2674403e+02 </wgt>
<wgt id='48'> +5.1156970e+02 </wgt>
<wgt id='49'> +5.0113522e+02 </wgt>
<wgt id='50'> +6.1138590e+02 </wgt>
<wgt id='51'> +4.9447276e+02 </wgt>
<wgt id='52'> +5.0337738e+02 </wgt>
<wgt id='53'> +5.0300599e+02 </wgt>
<wgt id='54'> +5.0921585e+02 </wgt>
<wgt id='55'> +4.5686211e+02 </wgt>
<wgt id='56'> +4.6064948e+02 </wgt>
<wgt id='57'> +4.9486635e+02 </wgt>
<wgt id='58'> +4.9767416e+02 </wgt>
<wgt id='59'> +5.1065205e+02 </wgt>
<wgt id='60'> +4.9489299e+02 </wgt>
<wgt id='61'> +4.6575711e+02 </wgt>
<wgt id='62'> +4.9866751e+02 </wgt>
<wgt id='63'> +5.0582419e+02 </wgt>
<wgt id='64'> +4.9258216e+02 </wgt>
<wgt id='65'> +5.8598852e+02 </wgt>
<wgt id='66'> +4.9565537e+02 </wgt>
<wgt id='67'> +5.0897099e+02 </wgt>
<wgt id='68'> +5.5333486e+02 </wgt>
<wgt id='69'> +5.0518809e+02 </wgt>
<wgt id='70'> +4.9605084e+02 </wgt>
<wgt id='71'> +5.1256889e+02 </wgt>
<wgt id='72'> +4.7629761e+02 </wgt>
<wgt id='73'> +4.9200270e+02 </wgt>
<wgt id='74'> +5.3106282e+02 </wgt>
<wgt id='75'> +5.1861245e+02 </wgt>
<wgt id='76'> +4.9045199e+02 </wgt>
<wgt id='77'> +4.9236578e+02 </wgt>
<wgt id='78'> +4.9177883e+02 </wgt>
<wgt id='79'> +4.9249210e+02 </wgt>
<wgt id='80'> +4.9502617e+02 </wgt>
<wgt id='81'> +4.9305135e+02 </wgt>
<wgt id='82'> +5.0919102e+02 </wgt>
<wgt id='83'> +5.1820977e+02 </wgt>
<wgt id='84'> +5.5520854e+02 </wgt>
<wgt id='85'> +5.2638987e+02 </wgt>
<wgt id='86'> +5.0778215e+02 </wgt>
<wgt id='87'> +5.0792834e+02 </wgt>
<wgt id='88'> +5.1442460e+02 </wgt>
<wgt id='89'> +5.1733963e+02 </wgt>
<wgt id='90'> +5.1320638e+02 </wgt>
<wgt id='91'> +5.2956516e+02 </wgt>
<wgt id='92'> +4.5128528e+02 </wgt>
<wgt id='93'> +5.0165248e+02 </wgt>
<wgt id='94'> +4.9405175e+02 </wgt>
<wgt id='95'> +4.8464239e+02 </wgt>
<wgt id='96'> +5.5353320e+02 </wgt>
<wgt id='97'> +5.0487891e+02 </wgt>
<wgt id='98'> +4.8685976e+02 </wgt>
<wgt id='99'> +4.8366199e+02 </wgt>
<wgt id='100'> +4.8098140e+02 </wgt>
<wgt id='101'> +5.5088988e+02 </wgt>
<wgt id='102'> +5.0983615e+02 </wgt>
<wgt id='103'> +5.5158977e+02 </wgt>
<wgt id='104'> +5.0999950e+02 </wgt>
<wgt id='105'> +5.1852767e+02 </wgt>
<wgt id='106'> +4.5283658e+02 </wgt>
<wgt id='107'> +4.8294310e+02 </wgt>
<wgt id='108'> +4.4076414e+02 </wgt>
<wgt id='109'> +4.6794318e+02 </wgt>
<wgt id='110'> +5.0115783e+02 </wgt>
<wgt id='111'> +4.8756323e+02 </wgt>
<wgt id='112'> +4.7515102e+02 </wgt>
<wgt id='113'> +4.6006238e+02 </wgt>
<wgt id='114'> +4.9022607e+02 </wgt>
<wgt id='115'> +4.8822298e+02 </wgt>
<wgt id='116'> +5.1962992e+02 </wgt>
<wgt id='117'> +5.0456651e+02 </wgt>
<wgt id='118'> +5.2943826e+02 </wgt>
<wgt id='119'> +4.8406586e+02 </wgt>
<wgt id='120'> +4.9373420e+02 </wgt>
<wgt id='121'> +4.8776353e+02 </wgt>
<wgt id='122'> +4.9720400e+02 </wgt>
<wgt id='123'> +5.1325729e+02 </wgt>
<wgt id='124'> +5.5533167e+02 </wgt>
<wgt id='125'> +5.5691879e+02 </wgt>
<wgt id='126'> +5.2743411e+02 </wgt>
<wgt id='127'> +5.2228423e+02 </wgt>
<wgt id='128'> +4.6137817e+02 </wgt>
<wgt id='129'> +5.7240219e+02 </wgt>
<wgt id='130'> +5.0886276e+02 </wgt>
<wgt id='131'> +5.3535242e+02 </wgt>
<wgt id='132'> +5.1354670e+02 </wgt>
<wgt id='133'> +5.1335898e+02 </wgt>
<wgt id='134'> +4.8081560e+02 </wgt>
<wgt id='135'> +5.1557168e+02 </wgt>
<wgt id='136'> +4.9876931e+02 </wgt>
<wgt id='137'> +4.8172984e+02 </wgt>
<wgt id='138'> +4.7332360e+02 </wgt>
<wgt id='139'> +5.1931130e+02 </wgt>
<wgt id='140'> +5.2756919e+02 </wgt>
<wgt id='141'> +5.0953957e+02 </wgt>
<wgt id='142'> +4.8909710e+02 </wgt>
<wgt id='143'> +5.0756343e+02 </wgt>
<wgt id='144'> +4.9600150e+02 </wgt>
<wgt id='145'> +5.0497414e+02 </wgt>
</rwgt>
</event>
<event>
 4      1 +5.0481800e+02 2.11634800e+02 7.54677100e-03 1.14027800e-01
       21 -1    0    0  501  502 +0.0000000000e+00 +0.0000000000e+00 +6.7518042873e+02 6.7518042873e+02 0.0000000000e+00 0.0000e+00 -1.0000e+00
       21 -1    0    0  502  503 -0.0000000000e+00 -0.0000000000e+00 -1.0919566040e+02 1.0919566040e+02 0.0000000000e+00 0.0000e+00 1.0000e+00
        6  1    1    2  501    0 -6.0798875817e+01 -1.0565880584e+02 +5.2869633478e+02 5.6948143162e+02 1.7300000000e+02 0.0000e+00 -1.0000e+00
       -6  1    1    2    0  503 +6.0798875817e+01 +1.0565880584e+02 +3.7288433544e+01 2.1489465751e+02 1.7300000000e+02 0.0000e+00 1.0000e+00
<mgrwt>
<rscale>  2 0.21163480E+03</rscale>
<asrwt>0</asrwt>
<pdfrwt beam="1">  1       21 0.10387391E+00 0.21163480E+03</pdfrwt>
<pdfrwt beam="2">  1       21 0.16799333E-01 0.21163480E+03</pdfrwt>
<totfact> 0.23637475E+04</totfact>
</mgrwt>
<rwgt>
<wgt id='1'> +6.6170988e+02 </wgt>
<wgt id='2'> +5.5297715e+02 </wgt>
<wgt id='3'> +5.0481800e+02 </wgt>
<wgt id='4'> +6.6170989e+02 </wgt>
<wgt id='5'> +4.5992388e+02 </wgt>
<wgt id='6'> +6.1634839e+02 </wgt>
<wgt id='7'> +5.0906383e+02 </wgt>
<wgt id='8'> +4.6407073e+02 </wgt>
<wgt id='9'> +6.1634840e+02 </wgt>
<wgt id='10'> +4.2303587e+02 </wgt>
<wgt id='11'> +5.6659874e+02 </wgt>
<wgt id='12'> +4.6842963e+02 </wgt>
<wgt id='13'> +4.2726592e+02 </wgt>
<wgt id='14'> +5.6659875e+02 </wgt>
<wgt id='15'> +3.8973891e+02 </wgt>
<wgt id='16'> +5.4197117e+02 </wgt>
<wgt id='17'> +4.6338113e+02 </wgt>
<wgt id='18'> +4.2592060e+02 </wgt>
<wgt id='19'> +5.4197117e+02 </wgt>
<wgt id='20'> +3.8994819e+02 </wgt>
<wgt id='21'> +4.2658286e+02 </wgt>
<wgt id='22'> +3.9154166e+02 </wgt>
<wgt id='23'> +5.0481800e+02 </wgt>
<wgt id='24'> +3.5867256e+02 </wgt>
<wgt id='25'> +4.6407072e+02 </wgt>
<wgt id='26'> +3.9253241e+02 </wgt>
<wgt id='27'> +3.6048903e+02 </wgt>
<wgt id='28'> +4.6407073e+02 </wgt>
<wgt id='29'> +3.3044161e+02 </wgt>
<wgt id='30'> +4.5726714e+02 </wgt>
<wgt id='31'> +3.9443141e+02 </wgt>
<wgt id='32'> +3.6412621e+02 </wgt>
<wgt id='33'> +4.5726714e+02 </wgt>
<wgt id='34'> +3.3480716e+02 </wgt>
<wgt id='35'> +4.2592059e+02 </wgt>
<wgt id='36'> +3.6310861e+02 </wgt>
<wgt id='37'> +3.3473512e+02 </wgt>
<wgt id='38'> +4.2592060e+02 </wgt>
<wgt id='39'> +3.0795408e+02 </wgt>
<wgt id='40'> +3.9154166e+02 </wgt>
<wgt id='41'> +3.3412476e+02 </wgt>
<wgt id='42'> +3.0818774e+02 </wgt>
<wgt id='43'> +3.9154166e+02 </wgt>
<wgt id='44'> +2.8371516e+02 </wgt>
<wgt id='45'> +5.0481800e+02 </wgt>
<wgt id='46'> +5.1631911e+02 </wgt>
<wgt id='47'> +5.2183180e+02 </wgt>
<wgt id='48'> +5.0850406e+02 </wgt>
<wgt id='49'> +4.9466974e+02 </wgt>
<wgt id='50'> +6.0586095e+02 </wgt>
<wgt id='51'> +4.9093382e+02 </wgt>
<wgt id='52'> +5.0193236e+02 </wgt>
<wgt id='53'> +4.9931369e+02 </wgt>
<wgt id='54'> +5.1463210e+02 </wgt>
<wgt id='55'> +4.7976745e+02 </wgt>
<wgt id='56'> +4.6095207e+02 </wgt>
<wgt id='57'> +5.0741347e+02 </wgt>
<wgt id='58'> +4.9098835e+02 </wgt>
<wgt id='59'> +5.2400386e+02 </wgt>
<wgt id='60'> +5.0192830e+02 </wgt>
<wgt id='61'> +4.4518299e+02 </wgt>
<wgt id='62'> +4.9344005e+02 </wgt>
<wgt id='63'> +5.0852753e+02 </wgt>
<wgt id='64'> +4.9540235e+02 </wgt>
<wgt id='65'> +5.6008321e+02 </wgt>
<wgt id='66'> +4.9691040e+02 </wgt>
<wgt id='67'> +5.0774826e+02 </wgt>
<wgt id='68'> +5.5990676e+02 </wgt>
<wgt id='69'> +5.0771179e+02 </wgt>
<wgt id='70'> +5.0013330e+02 </wgt>
<wgt id='71'> +5.0743001e+02 </wgt>
<wgt id='72'> +4.8160800e+02 </wgt>
<wgt id='73'> +4.8580972e+02 </wgt>
<wgt id='74'> +5.3698083e+02 </wgt>
<wgt id='75'> +5.1867506e+02 </wgt>
<wgt id='76'> +4.9874937e+02 </wgt>
<wgt id='77'> +4.9339272e+02 </wgt>
<wgt id='78'> +4.7986703e+02 </wgt>
<wgt id='79'> +5.0042134e+02 </wgt>
<wgt id='80'> +4.8828189e+02 </wgt>
<wgt id='81'> +4.9617283e+02 </wgt>
<wgt id='82'> +4.9722796e+02 </wgt>
<wgt id='83'> +5.1143762e+02 </wgt>
<wgt id='84'> +5.4168231e+02 </wgt>
<wgt id='85'> +5.1174088e+02 </wgt>
<wgt id='86'> +5.0926587e+02 </wgt>
<wgt id='87'> +5.0771565e+02 </wgt>
<wgt id='88'> +5.0768970e+02 </wgt>
<wgt id='89'> +5.0652555e+02 </wgt>
<wgt id='90'> +5.1153352e+02 </wgt>
<wgt id='91'> +5.1318624e+02 </wgt>
<wgt id='92'> +4.5886250e+02 </wgt>
<wgt id='93'> +5.0281408e+02 </wgt>
<wgt id='94'> +4.8830900e+02 </wgt>
<wgt id='95'> +4.9921913e+02 </wgt>
<wgt id='96'> +5.4230024e+02 </wgt>
<wgt id='97'> +4.9668335e+02 </wgt>
<wgt id='98'> +4.9642320e+02 </wgt>
<wgt id='99'> +4.7434611e+02 </wgt>
<wgt id='100'> +4.6410672e+02 </wgt>
<wgt id='101'> +5.6004031e+02 </wgt>
<wgt id='102'> +5.2230005e+02 </wgt>
<wgt id='103'> +5.4080053e+02 </wgt>
<wgt id='104'> +5.1236824e+02 </wgt>
<wgt id='105'> +5.2039019e+02 </wgt>
<wgt id='106'> +4.6021715e+02 </wgt>
<wgt id='107'> +4.8050955e+02 </wgt>
<wgt id='108'> +4.4582955e+02 </wgt>
<wgt id='109'> +4.7582936e+02 </wgt>
<wgt id='110'> +4.9738024e+02 </wgt>
<wgt id='111'> +4.9067988e+02 </wgt>
<wgt id='112'> +4.8113161e+02 </wgt>
<wgt id='113'> +4.7023626e+02 </wgt>
<wgt id='114'> +4.9625644e+02 </wgt>
<wgt id='115'> +4.7909939e+02 </wgt>
<wgt id='116'> +5.2507400e+02 </wgt>
<wgt id='117'> +4.9943900e+02 </wgt>
<wgt id='118'> +5.2966771e+02 </wgt>
<wgt id='119'> +4.9574839e+02 </wgt>
<wgt id='120'> +4.9506017e+02 </wgt>
<wgt id='121'> +4.9482160e+02 </wgt>
<wgt id='122'> +4.9846400e+02 </wgt>
<wgt id='123'> +5.0757922e+02 </wgt>
<wgt id='124'> +5.6037101e+02 </wgt>
<wgt id='125'> +5.6852038e+02 </wgt>
<wgt id='126'> +5.1965181e+02 </wgt>
<wgt id='127'> +5.1617938e+02 </wgt>
<wgt id='128'> +4.6059495e+02 </wgt>
<wgt id='129'> +5.6360929e+02 </wgt>
<wgt id='130'> +5.0134860e+02 </wgt>
<wgt id='131'> +5.2295205e+02 </wgt>
<wgt id='132'> +5.2967458e+02 </wgt>
<wgt id='133'> +5.2092964e+02 </wgt>
<wgt id='134'> +4.9198047e+02 </wgt>
<wgt id='135'> +5.0999398e+02 </wgt>
<wgt id='136'> +5.2394992e+02 </wgt>
<wgt id='137'> +4.8639937e+02 </wgt>
<wgt id='138'> +4.7779790e+02 </wgt>
<wgt id='139'> +5.2015744e+02 </wgt>
<wgt id='140'> +5.1841639e+02 </wgt>
<wgt id='141'> +5.1724179e+02 </wgt>
<wgt id='142'> +4.6983697e+02 </wgt>
<wgt id='143'> +5.1400739e+02 </wgt>
<wgt id='144'> +4.9109976e+02 </wgt>
<wgt id='145'> +4.9849392e+02 </wgt>
</rwgt>
</event>
<event>
 4      1 +5.0481800e+02 1.81169700e+02 7.54677100e-03 1.16667600e-01
       21 -1    0    0  503  502 +0.0000000000e+00 +0.0000000000e+00 +3.3681703820e+02 3.3681703820e+02 0.0000000000e+00 0.0000e+00 1.0000e+00
       21 -1    0    0  501  503 -0.0000000000e+00 -0.0000000000e+00 -1.2598300710e+02 1.2598300710e+02 0.0000000000e+00 0.0000e+00 1.0000e+00
        6  1    1    2  501    0 -5.3466594323e+01 -5.8964025413e+00 -4.7089380408e+00 1.8123084276e+02 1.7300000000e+02 0.0000e+00 1.0000e+00
       -6  1    1    2    0  502 +5.3466594323e+01 +5.8964025413e+00 +2.1554296914e+02 2.8156920253e+02 1.7300000000e+02 0.0000e+00 1.0000e+00
<mgrwt>
<rscale>  2 0.18116966E+03</rscale>
<asrwt>0</asrwt>
<pdfrwt beam="1">  1       21 0.51818005E-01 0.18116966E+03</pdfrwt>
<pdfrwt beam="2">  1       21 0.19382001E-01 0.18116966E+03</pdfrwt>
<totfact> 0.86945017E+04</totfact>
</mgrwt>
<rwgt>
<wgt id='1'> +6.4667649e+02 </wgt>
<wgt id='2'> +5.7635938e+02 </wgt>
<wgt id='3'> +5.0481800e+02 </wgt>
<wgt id='4'> +6.4667650e+02 </wgt>
<wgt id='5'> +4.8296489e+02 </wgt>
<wgt id='6'> +6.2122833e+02 </wgt>
<wgt id='7'> +5.4828926e+02 </wgt>
<wgt id='8'> +4.7569957e+02 </wgt>
<wgt id='9'> +6.2122834e+02 </wgt>
<wgt id='10'> +4.5467798e+02 </wgt>
<wgt id='11'> +5.8539523e+02 </wgt>
<wgt id='12'> +5.1609974e+02 </wgt>
<wgt id='13'> +4.4760324e+02 </wgt>
<wgt id='14'> +5.8539523e+02 </wgt>
<wgt id='15'> +4.2779699e+02 </wgt>
<wgt id='16'> +5.2549750e+02 </wgt>
<wgt id='17'> +4.7617712e+02 </wgt>
<wgt id='18'> +4.2423679e+02 </wgt>
<wgt id='19'> +5.2549750e+02 </wgt>
<wgt id='20'> +4.0726301e+02 </wgt>
<wgt id='21'> +4.5298611e+02 </wgt>
<wgt id='22'> +3.9976637e+02 </wgt>
<wgt id='23'> +5.0481800e+02 </wgt>
<wgt id='24'> +3.8340991e+02 </wgt>
<wgt id='25'> +4.7569956e+02 </wgt>
<wgt id='26'> +4.2639175e+02 </wgt>
<wgt id='27'> +3.7615489e+02 </wgt>
<wgt id='28'> +4.7569957e+02 </wgt>
<wgt id='29'> +3.6074235e+02 </wgt>
<wgt id='30'> +4.4161534e+02 </wgt>
<wgt id='31'> +4.0302702e+02 </wgt>
<wgt id='32'> +3.6166957e+02 </wgt>
<wgt id='33'> +4.4161534e+02 </wgt>
<wgt id='34'> +3.4800772e+02 </wgt>
<wgt id='35'> +4.2423679e+02 </wgt>
<wgt id='36'> +3.8339861e+02 </wgt>
<wgt id='37'> +3.4080809e+02 </wgt>
<wgt id='38'> +4.2423679e+02 </wgt>
<wgt id='39'> +3.2762516e+02 </wgt>
<wgt id='40'> +3.9976636e+02 </wgt>
<wgt id='41'> +3.6088966e+02 </wgt>
<wgt id='42'> +3.2067888e+02 </wgt>
<wgt id='43'> +3.9976637e+02 </wgt>
<wgt id='44'> +3.0825565e+02 </wgt>
<wgt id='45'> +5.0481800e+02 </wgt>
<wgt id='46'> +5.0418092e+02 </wgt>
<wgt id='47'> +5.2133664e+02 </wgt>
<wgt id='48'> +5.0546992e+02 </wgt>
<wgt id='49'> +5.0367709e+02 </wgt>
<wgt id='50'> +5.8468286e+02 </wgt>
<wgt id='51'> +4.9511105e+02 </wgt>
<wgt id='52'> +5.0222447e+02 </wgt>
<wgt id='53'> +5.1060859e+02 </wgt>
<wgt id='54'> +5.0772660e+02 </wgt>
<wgt id='55'> +4.5370340e+02 </wgt>
<wgt id='56'> +4.7076916e+02 </wgt>
<wgt id='57'> +4.9259142e+02 </wgt>
<wgt id='58'> +5.0911310e+02 </wgt>
<wgt id='59'> +4.9806412e+02 </wgt>
<wgt id='60'> +4.8496832e+02 </wgt>
<wgt id='61'> +4.9157312e+02 </wgt>
<wgt id='62'> +4.9793270e+02 </wgt>
<wgt id='63'> +5.0518431e+02 </wgt>
<wgt id='64'> +5.0082234e+02 </wgt>
<wgt id='65'> +5.9200479e+02 </wgt>
<wgt id='66'> +4.9268105e+02 </wgt>
<wgt id='67'> +5.0925743e+02 </wgt>
<wgt id='68'> +5.3965660e+02 </wgt>
<wgt id='69'> +4.9084205e+02 </wgt>
<wgt id='70'> +4.9679826e+02 </wgt>
<wgt id='71'> +5.1442951e+02 </wgt>
<wgt id='72'> +4.9378876e+02 </wgt>
<wgt id='73'> +4.9873493e+02 </wgt>
<wgt id='74'> +5.1885891e+02 </wgt>
<wgt id='75'> +5.1517525e+02 </wgt>
<wgt id='76'> +4.9121334e+02 </wgt>
<wgt id='77'> +4.8645191e+02 </wgt>
<wgt id='78'> +5.0531882e+02 </wgt>
<wgt id='79'> +4.8443030e+02 </wgt>
<wgt id='80'> +5.0072045e+02 </wgt>
<wgt id='81'> +4.9612264e+02 </wgt>
<wgt id='82'> +5.1784648e+02 </wgt>
<wgt id='83'> +5.1383973e+02 </wgt>
<wgt id='84'> +5.5217697e+02 </wgt>
<wgt id='85'> +5.2995465e+02 </wgt>
<wgt id='86'> +5.0076765e+02 </wgt>
<wgt id='87'> +5.0463423e+02 </wgt>
<wgt id='88'> +5.1228358e+02 </wgt>
<wgt id='89'> +5.1622108e+02 </wgt>
<wgt id='90'> +5.1072921e+02 </wgt>
<wgt id='91'> +5.3624902e+02 </wgt>
<wgt id='92'> +4.6775707e+02 </wgt>
<wgt id='93'> +4.9579069e+02 </wgt>
<wgt id='94'> +5.0283631e+02 </wgt>
<wgt id='95'> +4.8599148e+02 </wgt>
<wgt id='96'> +5.4259310e+02 </wgt>
<wgt id='97'> +5.1275232e+02 </wgt>
<wgt id='98'> +4.8204993e+02 </wgt>
<wgt id='99'> +4.9058875e+02 </wgt>
<wgt id='100'> +5.0215108e+02 </wgt>
<wgt id='101'> +5.2874720e+02 </wgt>
<wgt id='102'> +4.8947275e+02 </wgt>
<wgt id='103'> +5.4665724e+02 </wgt>
<wgt id='104'> +5.0305931e+02 </wgt>
<wgt id='105'> +5.2560353e+02 </wgt>
<wgt id='106'> +4.6694545e+02 </wgt>
<wgt id='107'> +5.0006468e+02 </wgt>
<wgt id='108'> +4.5452658e+02 </wgt>
<wgt id='109'> +4.7597854e+02 </wgt>
<wgt id='110'> +5.0632164e+02 </wgt>
<wgt id='111'> +4.9255837e+02 </wgt>
<wgt id='112'> +4.8253480e+02 </wgt>
<wgt id='113'> +4.6508153e+02 </wgt>
<wgt id='114'> +5.0496372e+02 </wgt>
<wgt id='115'> +5.0554705e+02 </wgt>
<wgt id='116'> +5.0297557e+02 </wgt>
<wgt id='117'> +5.1122117e+02 </wgt>
<wgt id='118'> +5.1614815e+02 </wgt>
<wgt id='119'> +4.8647543e+02 </wgt>
<wgt id='120'> +5.0237879e+02 </wgt>
<wgt id='121'> +4.9201098e+02 </wgt>
<wgt id='122'> +4.9875434e+02 </wgt>
<wgt id='123'> +5.1023416e+02 </wgt>
<wgt id='124'> +5.3729488e+02 </wgt>
<wgt id='125'> +5.3875591e+02 </wgt>
<wgt id='126'> +5.2272928e+02 </wgt>
<wgt id='127'> +5.1888291e+02 </wgt>
<wgt id='128'> +4.6911441e+02 </wgt>
<wgt id='129'> +5.7017889e+02 </wgt>
<wgt id='130'> +5.0723327e+02 </wgt>
<wgt id='131'> +5.3985340e+02 </wgt>
<wgt id='132'> +5.0043007e+02 </wgt>
<wgt id='133'> +5.0072785e+02 </wgt>
<wgt id='134'> +4.7590164e+02 </wgt>
<wgt id='135'> +5.1753588e+02 </wgt>
<wgt id='136'> +4.8543890e+02 </wgt>
<wgt id='137'> +4.7511143e+02 </wgt>
<wgt id='138'> +4.5775796e+02 </wgt>
<wgt id='139'> +5.1409666e+02 </wgt>
<wgt id='140'> +5.3621009e+02 </wgt>
<wgt id='141'> +5.0364926e+02 </wgt>
<wgt id='142'> +5.0852086e+02 </wgt>
<wgt id='143'> +5.0096981e+02 </wgt>
<wgt id='144'> +5.0545436e+02 </wgt>
<wgt id='145'> +5.0593022e+02 </wgt>
</rwgt>
</event>
<event>
 4      1 +5.0481800e+02 2.70966500e+02 7.54677100e-03 1.10072800e-01
       21 -1    0    0  501  502 +0.0000000000e+00 +0.0000000000e+00 +7.1670850601e+02 7.1670850601e+02 0.0000000000e+00 0.0000e+00 -1.0000e+00
       21 -1    0    0  502  503 -0.0000000000e+00 -0.0000000000e+00 -1.0249078548e+02 1.0249078548e+02 0.0000000000e+00 0.0000e+00 -1.0000e+00
        6  1    1    2  501    0 +1.4980502416e+02 -1.4509406317e+02 +3.1581486332e+02 4.1612721652e+02 1.7300000000e+02 0.0000e+00 -1.0000e+00
       -6  1    1    2    0  503 -1.4980502416e+02 +1.4509406317e+02 +2.9840285721e+02 4.0307207497e+02 1.7300000000e+02 0.0000e+00 -1.0000e+00
<mgrwt>
<rscale>  2 0.27096648E+03</rscale>
<asrwt>0</asrwt>
<pdfrwt beam="1">  1       21 0.11026284E+00 0.27096648E+03</pdfrwt>
<pdfrwt beam="2">  1       21 0.15767814E-01 0.27096648E+03</pdfrwt>
<totfact> 0.22298642E+04</totfact>
</mgrwt>
<rwgt>
<wgt id='1'> +6.5840002e+02 </wgt>
<wgt id='2'> +5.3665033e+02 </wgt>
<wgt id='3'> +5.0481800e+02 </wgt>
<wgt id='4'> +6.5840002e+02 </wgt>
<wgt id='5'> +5.0477564e+02 </wgt>
<wgt id='6'> +6.0835550e+02 </wgt>
<wgt id='7'> +4.9290333e+02 </wgt>
<wgt id='8'> +4.6380494e+02 </wgt>
<wgt id='9'> +6.0835550e+02 </wgt>
<wgt id='10'> +4.6376623e+02 </wgt>
<wgt id='11'> +5.5893072e+02 </wgt>
<wgt id='12'> +4.5341786e+02 </wgt>
<wgt id='13'> +4.2684196e+02 </wgt>
<wgt id='14'> +5.5893072e+02 </wgt>
<wgt id='15'> +4.2680661e+02 </wgt>
<wgt id='16'> +5.4634532e+02 </wgt>
<wgt id='17'> +4.5349616e+02 </wgt>
<wgt id='18'> +4.2799441e+02 </wgt>
<wgt id='19'> +5.4634532e+02 </wgt>
<wgt id='20'> +4.2796041e+02 </wgt>
<wgt id='21'> +4.1652778e+02 </wgt>
<wgt id='22'> +3.9322276e+02 </wgt>
<wgt id='23'> +5.0481800e+02 </wgt>
<wgt id='24'> +3.9319169e+02 </wgt>
<wgt id='25'> +4.6380494e+02 </wgt>
<wgt id='26'> +3.8316060e+02 </wgt>
<wgt id='27'> +3.6188483e+02 </wgt>
<wgt id='28'> +4.6380494e+02 </wgt>
<wgt id='29'> +3.6185646e+02 </wgt>
<wgt id='30'> +4.6320207e+02 </wgt>
<wgt id='31'> +3.8826893e+02 </wgt>
<wgt id='32'> +3.6746072e+02 </wgt>
<wgt id='33'> +4.6320208e+02 </wgt>
<wgt id='34'> +3.6743291e+02 </wgt>
<wgt id='35'> +4.2799441e+02 </wgt>
<wgt id='36'> +3.5661778e+02 </wgt>
<wgt id='37'> +3.3760701e+02 </wgt>
<wgt id='38'> +4.2799441e+02 </wgt>
<wgt id='39'> +3.3758162e+02 </wgt>
<wgt id='40'> +3.9322275e+02 </wgt>
<wgt id='41'> +3.2804987e+02 </wgt>
<wgt id='42'> +3.1070139e+02 </wgt>
<wgt id='43'> +3.9322276e+02 </wgt>
<wgt id='44'> +3.1067821e+02 </wgt>
<wgt id='45'> +5.0481800e+02 </wgt>
<wgt id='46'> +5.1734617e+02 </wgt>
<wgt id='47'> +5.2156753e+02 </wgt>
<wgt id='48'> +5.0849648e+02 </wgt>
<wgt id='49'> +4.9227784e+02 </wgt>
<wgt id='50'> +6.0467929e+02 </wgt>
<wgt id='51'> +4.8999596e+02 </wgt>
<wgt id='52'> +5.0018493e+02 </wgt>
<wgt id='53'> +4.9898746e+02 </wgt>
<wgt id='54'> +5.1639929e+02 </wgt>
<wgt id='55'> +4.8748046e+02 </wgt>
<wgt id='56'> +4.6238576e+02 </wgt>
<wgt id='57'> +5.1049783e+02 </wgt>
<wgt id='58'> +4.8755492e+02 </wgt>
<wgt id='59'> +5.2728828e+02 </wgt>
<wgt id='60'> +5.0343371e+02 </wgt>
<wgt id='61'> +4.4209496e+02 </wgt>
<wgt id='62'> +4.9173783e+02 </wgt>
<wgt id='63'> +5.1005363e+02 </wgt>
<wgt id='64'> +4.9582741e+02 </wgt>
<wgt id='65'> +5.5076995e+02 </wgt>
<wgt id='66'> +4.9851070e+02 </wgt>
<wgt id='67'> +5.0755867e+02 </wgt>
<wgt id='68'> +5.6321799e+02 </wgt>
<wgt id='69'> +5.1146419e+02 </wgt>
<wgt id='70'> +5.0280345e+02 </wgt>
<wgt id='71'> +5.0489650e+02 </wgt>
<wgt id='72'> +4.8020062e+02 </wgt>
<wgt id='73'> +4.8313094e+02 </wgt>
<wgt id='74'> +5.3990019e+02 </wgt>
<wgt id='75'> +5.2009287e+02 </wgt>
<wgt id='76'> +5.0095215e+02 </wgt>
<wgt id='77'> +4.9342278e+02 </wgt>
<wgt id='78'> +4.7574684e+02 </wgt>
<wgt id='79'> +5.0408711e+02 </wgt>
<wgt id='80'> +4.8543243e+02 </wgt>
<wgt id='81'> +4.9782044e+02 </wgt>
<wgt id='82'> +4.9470065e+02 </wgt>
<wgt id='83'> +5.1032576e+02 </wgt>
<wgt id='84'> +5.3735353e+02 </wgt>
<wgt id='85'> +5.0661262e+02 </wgt>
<wgt id='86'> +5.1095139e+02 </wgt>
<wgt id='87'> +5.0734308e+02 </wgt>
<wgt id='88'> +5.0649797e+02 </wgt>
<wgt id='89'> +5.0118754e+02 </wgt>
<wgt id='90'> +5.0925405e+02 </wgt>
<wgt id='91'> +5.0703902e+02 </wgt>
<wgt id='92'> +4.6013880e+02 </wgt>
<wgt id='93'> +5.0378317e+02 </wgt>
<wgt id='94'> +4.8585826e+02 </wgt>
<wgt id='95'> +5.0259914e+02 </wgt>
<wgt id='96'> +5.4024515e+02 </wgt>
<wgt id='97'> +4.9333950e+02 </wgt>
<wgt id='98'> +5.0048682e+02 </wgt>
<wgt id='99'> +4.7062285e+02 </wgt>
<wgt id='100'> +4.5730577e+02 </wgt>
<wgt id='101'> +5.6313876e+02 </wgt>
<wgt id='102'> +5.2758241e+02 </wgt>
<wgt id='103'> +5.3581977e+02 </wgt>
<wgt id='104'> +5.1488353e+02 </wgt>
<wgt id='105'> +5.1943650e+02 </wgt>
<wgt id='106'> +4.6255007e+02 </wgt>
<wgt id='107'> +4.7958850e+02 </wgt>
<wgt id='108'> +4.4831709e+02 </wgt>
<wgt id='109'> +4.7807068e+02 </wgt>
<wgt id='110'> +4.9472135e+02 </wgt>
<wgt id='111'> +4.9113866e+02 </wgt>
<wgt id='112'> +4.8435363e+02 </wgt>
<wgt id='113'> +4.7469756e+02 </wgt>
<wgt id='114'> +4.9736245e+02 </wgt>
<wgt id='115'> +4.7712163e+02 </wgt>
<wgt id='116'> +5.2829142e+02 </wgt>
<wgt id='117'> +4.9826824e+02 </wgt>
<wgt id='118'> +5.2976965e+02 </wgt>
<wgt id='119'> +4.9980058e+02 </wgt>
<wgt id='120'> +4.9602357e+02 </wgt>
<wgt id='121'> +4.9566012e+02 </wgt>
<wgt id='122'> +4.9846670e+02 </wgt>
<wgt id='123'> +5.0612573e+02 </wgt>
<wgt id='124'> +5.6164194e+02 </wgt>
<wgt id='125'> +5.7299953e+02 </wgt>
<wgt id='126'> +5.1756742e+02 </wgt>
<wgt id='127'> +5.1367170e+02 </wgt>
<wgt id='128'> +4.6265054e+02 </wgt>
<wgt id='129'> +5.5869922e+02 </wgt>
<wgt id='130'> +4.9971860e+02 </wgt>
<wgt id='131'> +5.1749244e+02 </wgt>
<wgt id='132'> +5.3302464e+02 </wgt>
<wgt id='133'> +5.2397978e+02 </wgt>
<wgt id='134'> +4.9607291e+02 </wgt>
<wgt id='135'> +5.0742107e+02 </wgt>
<wgt id='136'> +5.3105685e+02 </wgt>
<wgt id='137'> +4.9029267e+02 </wgt>
<wgt id='138'> +4.8292702e+02 </wgt>
<wgt id='139'> +5.2005484e+02 </wgt>
<wgt id='140'> +5.1483181e+02 </wgt>
<wgt id='141'> +5.2120365e+02 </wgt>
<wgt id='142'> +4.6088123e+02 </wgt>
<wgt id='143'> +5.1525617e+02 </wgt>
<wgt id='144'> +4.8827099e+02 </wgt>
<wgt id='145'> +4.9618411e+02 </wgt>
</rwgt>
</event>
<event>
 4      1 +5.0481800e+02 1.83041200e+02 7.54677100e-03 1.16489200e-01
       21 -1    0    0  503  502 +0.0000000000e+00 +0.0000000000e+00 +1.0805209365e+02 1.0805209365e+02 0.0000000000e+00 0.0000e+00 -1.0000e+00
       21 -1    0    0  501  503 -0.0000000000e+00 -0.0000000000e+00 -4.8788534887e+02 4.8788534887e+02 0.0000000000e+00 0.0000e+00 -1.0000e+00
        6  1    1    2  501    0 -2.4683406170e+01 -5.4459248109e+01 -3.6980051229e+02 4.1262149621e+02 1.7300000000e+02 0.0000e+00 -1.0000e+00
       -6  1    1    2    0  502 +2.4683406170e+01 +5.4459248109e+01 -1.0032742932e+01 1.8331594632e+02 1.7300000000e+02 0.0000e+00 -1.0000e+00
<mgrwt>
<rscale>  2 0.18304120E+03</rscale>
<asrwt>0</asrwt>
<pdfrwt beam="1">  1       21 0.16623400E-01 0.18304120E+03</pdfrwt>
<pdfrwt beam="2">  1       21 0.75059281E-01 0.18304120E+03</pdfrwt>
<totfact> 0.51830412E+04</totfact>
</mgrwt>
<rwgt>
<wgt id='1'> +6.5324221e+02 </wgt>
<wgt id='2'> +5.8348455e+02 </wgt>
<wgt id='3'> +5.0481800e+02 </wgt>
<wgt id='4'> +6.5324221e+02 </wgt>
<wgt id='5'> +4.6561356e+02 </wgt>
<wgt id='6'> +6.2092591e+02 </wgt>
<wgt id='7'> +5.4977191e+02 </wgt>
<wgt id='8'> +4.7124941e+02 </wgt>
<wgt id='9'> +6.2092591e+02 </wgt>
<wgt id='10'> +4.3440792e+02 </wgt>
<wgt id='11'> +5.7963656e+02 </wgt>
<wgt id='12'> +5.1291766e+02 </wgt>
<wgt id='13'> +4.3968910e+02 </wgt>
<wgt id='14'> +5.7963656e+02 </wgt>
<wgt id='15'> +4.0538089e+02 </wgt>
<wgt id='16'> +5.3109143e+02 </wgt>
<wgt id='17'> +4.8185669e+02 </wgt>
<wgt id='18'> +4.2437215e+02 </wgt>
<wgt id='19'> +5.3109143e+02 </wgt>
<wgt id='20'> +3.9344955e+02 </wgt>
<wgt id='21'> +4.5401591e+02 </wgt>
<wgt id='22'> +3.9615293e+02 </wgt>
<wgt id='23'> +5.0481800e+02 </wgt>
<wgt id='24'> +3.6708038e+02 </wgt>
<wgt id='25'> +4.7124941e+02 </wgt>
<wgt id='26'> +4.2358071e+02 </wgt>
<wgt id='27'> +3.6962194e+02 </wgt>
<wgt id='28'> +4.7124941e+02 </wgt>
<wgt id='29'> +3.4255216e+02 </wgt>
<wgt id='30'> +4.4645875e+02 </wgt>
<wgt id='31'> +4.0776612e+02 </wgt>
<wgt id='32'> +3.6185282e+02 </wgt>
<wgt id='33'> +4.4645875e+02 </wgt>
<wgt id='34'> +3.3684614e+02 </wgt>
<wgt id='35'> +4.2437215e+02 </wgt>
<wgt id='36'> +3.8420616e+02 </wgt>
<wgt id='37'> +3.3779090e+02 </wgt>
<wgt id='38'> +4.2437215e+02 </wgt>
<wgt id='39'> +3.1427056e+02 </wgt>
<wgt id='40'> +3.9615292e+02 </wgt>
<wgt id='41'> +3.5845069e+02 </wgt>
<wgt id='42'> +3.1516852e+02 </wgt>
<wgt id='43'> +3.9615293e+02 </wgt>
<wgt id='44'> +2.9327108e+02 </wgt>
<wgt id='45'> +5.0481800e+02 </wgt>
<wgt id='46'> +5.0991554e+02 </wgt>
<wgt id='47'> +5.2173359e+02 </wgt>
<wgt id='48'> +5.0776555e+02 </wgt>
<wgt id='49'> +5.0108944e+02 </wgt>
<wgt id='50'> +5.9475059e+02 </wgt>
<wgt id='51'> +4.9417386e+02 </wgt>
<wgt id='52'> +5.0363295e+02 </wgt>
<wgt id='53'> +5.0472354e+02 </wgt>
<wgt id='54'> +5.0953562e+02 </wgt>
<wgt id='55'> +4.6240745e+02 </wgt>
<wgt id='56'> +4.6514036e+02 </wgt>
<wgt id='57'> +4.9803811e+02 </wgt>
<wgt id='58'> +5.0253887e+02 </wgt>
<wgt id='59'> +5.0943060e+02 </wgt>
<wgt id='60'> +4.9376007e+02 </wgt>
<wgt id='61'> +4.6725067e+02 </wgt>
<wgt id='62'> +4.9728522e+02 </wgt>
<wgt id='63'> +5.0565111e+02 </wgt>
<wgt id='64'> +4.9712602e+02 </wgt>
<wgt id='65'> +5.8022708e+02 </wgt>
<wgt id='66'> +4.9406542e+02 </wgt>
<wgt id='67'> +5.0869812e+02 </wgt>
<wgt id='68'> +5.4802713e+02 </wgt>
<wgt id='69'> +4.9728122e+02 </wgt>
<wgt id='70'> +4.9694352e+02 </wgt>
<wgt id='71'> +5.1288539e+02 </wgt>
<wgt id='72'> +4.8862543e+02 </wgt>
<wgt id='73'> +4.9461052e+02 </wgt>
<wgt id='74'> +5.2598190e+02 </wgt>
<wgt id='75'> +5.1596011e+02 </wgt>
<wgt id='76'> +4.9367860e+02 </wgt>
<wgt id='77'> +4.9074716e+02 </wgt>
<wgt id='78'> +4.9519732e+02 </wgt>
<wgt id='79'> +4.9073789e+02 </wgt>
<wgt id='80'> +4.9633418e+02 </wgt>
<wgt id='81'> +4.9520980e+02 </wgt>
<wgt id='82'> +5.0903747e+02 </wgt>
<wgt id='83'> +5.1336827e+02 </wgt>
<wgt id='84'> +5.4909677e+02 </wgt>
<wgt id='85'> +5.2399807e+02 </wgt>
<wgt id='86'> +5.0396198e+02 </wgt>
<wgt id='87'> +5.0663964e+02 </wgt>
<wgt id='88'> +5.1036885e+02 </wgt>
<wgt id='89'> +5.1541287e+02 </wgt>
<wgt id='90'> +5.1316673e+02 </wgt>
<wgt id='91'> +5.2867242e+02 </wgt>
<wgt id='92'> +4.6309760e+02 </wgt>
<wgt id='93'> +4.9906820e+02 </wgt>
<wgt id='94'> +4.9757159e+02 </wgt>
<wgt id='95'> +4.9025797e+02 </wgt>
<wgt id='96'> +5.4346864e+02 </wgt>
<wgt id='97'> +5.0689734e+02 </wgt>
<wgt id='98'> +4.8659927e+02 </wgt>
<wgt id='99'> +4.8567961e+02 </wgt>
<wgt id='100'> +4.8809921e+02 </wgt>
<wgt id='101'> +5.4238064e+02 </wgt>
<wgt id='102'> +5.0293694e+02 </wgt>
<wgt id='103'> +5.4687688e+02 </wgt>
<wgt id='104'> +5.0596744e+02 </wgt>
<wgt id='105'> +5.2311938e+02 </wgt>
<wgt id='106'> +4.6250327e+02 </wgt>
<wgt id='107'> +4.9061570e+02 </wgt>
<wgt id='108'> +4.4877016e+02 </wgt>
<wgt id='109'> +4.7440200e+02 </wgt>
<wgt id='110'> +5.0373156e+02 </wgt>
<wgt id='111'> +4.9124843e+02 </wgt>
<wgt id='112'> +4.7910400e+02 </wgt>
<wgt id='113'> +4.6511089e+02 </wgt>
<wgt id='114'> +4.9845854e+02 </wgt>
<wgt id='115'> +4.9232287e+02 </wgt>
<wgt id='116'> +5.1214258e+02 </wgt>
<wgt id='117'> +5.0558819e+02 </wgt>
<wgt id='118'> +5.2302840e+02 </wgt>
<wgt id='119'> +4.8819491e+02 </wgt>
<wgt id='120'> +4.9646645e+02 </wgt>
<wgt id='121'> +4.9278726e+02 </wgt>
<wgt id='122'> +4.9900232e+02 </wgt>
<wgt id='123'> +5.0978650e+02 </wgt>
<wgt id='124'> +5.4770178e+02 </wgt>
<wgt id='125'> +5.5012135e+02 </wgt>
<wgt id='126'> +5.2255200e+02 </wgt>
<wgt id='127'> +5.1932323e+02 </wgt>
<wgt id='128'> +4.6344969e+02 </wgt>
<wgt id='129'> +5.6940428e+02 </wgt>
<wgt id='130'> +5.0392274e+02 </wgt>
<wgt id='131'> +5.3437564e+02 </wgt>
<wgt id='132'> +5.1355239e+02 </wgt>
<wgt id='133'> +5.0902225e+02 </wgt>
<wgt id='134'> +4.8204156e+02 </wgt>
<wgt id='135'> +5.1540590e+02 </wgt>
<wgt id='136'> +5.0027022e+02 </wgt>
<wgt id='137'> +4.7878238e+02 </wgt>
<wgt id='138'> +4.6522514e+02 </wgt>
<wgt id='139'> +5.1726937e+02 </wgt>
<wgt id='140'> +5.2899495e+02 </wgt>
<wgt id='141'> +5.0738240e+02 </wgt>
<wgt id='142'> +4.9295202e+02 </wgt>
<wgt id='143'> +5.0738298e+02 </wgt>
<wgt id='144'> +5.0049935e+02 </wgt>
<wgt id='145'> +5.0457760e+02 </wgt>
</rwgt>
</event>
<event>
 4      1 +5.0481800e+02 2.09127700e+02 7.54677100e-03 1.14225900e-01
       21 -1    0    0  501  502 +0.0000000000e+00 +0.0000000000e+00 +1.1168430021e+02 1.1168430021e+02 0.0000000000e+00 0.0000e+00 -1.0000e+00
       21 -1    0    0  502  503 -0.0000000000e+00 -0.0000000000e+00 -9.6058962332e+02 9.6058962332e+02 0.0000000000e+00 0.0000e+00 -1.0000e+00
        6  1    1    2  501    0 -1.1731751135e+02 +6.4799436034e+00 -1.1820550498e+01 2.0946148465e+02 1.7300000000e+02 0.0000e+00 -1.0000e+00
       -6  1    1    2    0  503 +1.1731751135e+02 -6.4799436034e+00 -8.3708477261e+02 8.6281243887e+02 1.7300000000e+02 0.0000e+00 -1.0000e+00
<mgrwt>
<rscale>  2 0.20912768E+03</rscale>
<asrwt>0</asrwt>
<pdfrwt beam="1">  1       21 0.17182200E-01 0.20912768E+03</pdfrwt>
<pdfrwt beam="2">  1       21 0.14778302E+00 0.20912768E+03</pdfrwt>
<totfact> 0.93913701E+03</totfact>
</mgrwt>
<rwgt>
<wgt id='1'> +6.7704044e+02 </wgt>
<wgt id='2'> +5.5801815e+02 </wgt>
<wgt id='3'> +5.0481800e+02 </wgt>
<wgt id='4'> +6.7704044e+02 </wgt>
<wgt id='5'> +4.2171185e+02 </wgt>
<wgt id='6'> +6.1676474e+02 </wgt>
<wgt id='7'> +5.0306822e+02 </wgt>
<wgt id='8'> +4.5464912e+02 </wgt>
<wgt id='9'> +6.1676474e+02 </wgt>
<wgt id='10'> +3.8061871e+02 </wgt>
<wgt id='11'> +5.5547059e+02 </wgt>
<wgt id='12'> +4.5405263e+02 </wgt>
<wgt id='13'> +4.1082725e+02 </wgt>
<wgt id='14'> +5.5547059e+02 </wgt>
<wgt id='15'> +3.4470576e+02 </wgt>
<wgt id='16'> +5.5415327e+02 </wgt>
<wgt id='17'> +4.6732686e+02 </wgt>
<wgt id='18'> +4.2582123e+02 </wgt>
<wgt id='19'> +5.5415327e+02 </wgt>
<wgt id='20'> +3.5884153e+02 </wgt>
<wgt id='21'> +4.2130760e+02 </wgt>
<wgt id='22'> +3.8350307e+02 </wgt>
<wgt id='23'> +5.0481800e+02 </wgt>
<wgt id='24'> +3.2387471e+02 </wgt>
<wgt id='25'> +4.5464913e+02 </wgt>
<wgt id='26'> +3.8025822e+02 </wgt>
<wgt id='27'> +3.4653868e+02 </wgt>
<wgt id='28'> +4.5464912e+02 </wgt>
<wgt id='29'> +2.9331578e+02 </wgt>
<wgt id='30'> +4.6743625e+02 </wgt>
<wgt id='31'> +3.9767440e+02 </wgt>
<wgt id='32'> +3.6396414e+02 </wgt>
<wgt id='33'> +4.6743624e+02 </wgt>
<wgt id='34'> +3.0905046e+02 </wgt>
<wgt id='35'> +4.2582124e+02 </wgt>
<wgt id='36'> +3.5851406e+02 </wgt>
<wgt id='37'> +3.2779334e+02 </wgt>
<wgt id='38'> +4.2582123e+02 </wgt>
<wgt id='39'> +2.7893546e+02 </wgt>
<wgt id='40'> +3.8350307e+02 </wgt>
<wgt id='41'> +3.2358286e+02 </wgt>
<wgt id='42'> +2.9619860e+02 </wgt>
<wgt id='43'> +3.8350307e+02 </wgt>
<wgt id='44'> +2.5261674e+02 </wgt>
<wgt id='45'> +5.0481800e+02 </wgt>
<wgt id='46'> +5.2073883e+02 </wgt>
<wgt id='47'> +5.2207138e+02 </wgt>
<wgt id='48'> +5.0777218e+02 </wgt>
<wgt id='49'> +4.8156541e+02 </wgt>
<wgt id='50'> +6.1261794e+02 </wgt>
<wgt id='51'> +4.8332749e+02 </wgt>
<wgt id='52'> +4.9208142e+02 </wgt>
<wgt id='53'> +4.9918624e+02 </wgt>
<wgt id='54'> +5.2529547e+02 </wgt>
<wgt id='55'> +5.1247007e+02 </wgt>
<wgt id='56'> +4.6432982e+02 </wgt>
<wgt id='57'> +5.2156687e+02 </wgt>
<wgt id='58'> +4.7372206e+02 </wgt>
<wgt id='59'> +5.3932683e+02 </wgt>
<wgt id='60'> +5.0508392e+02 </wgt>
<wgt id='61'> +4.4518106e+02 </wgt>
<wgt id='62'> +4.8232722e+02 </wgt>
<wgt id='63'> +5.1790110e+02 </wgt>
<wgt id='64'> +4.9829060e+02 </wgt>
<wgt id='65'> +5.2422888e+02 </wgt>
<wgt id='66'> +5.0193249e+02 </wgt>
<wgt id='67'> +5.0721381e+02 </wgt>
<wgt id='68'> +5.8303727e+02 </wgt>
<wgt id='69'> +5.2479538e+02 </wgt>
<wgt id='70'> +5.1304557e+02 </wgt>
<wgt id='71'> +4.9344604e+02 </wgt>
<wgt id='72'> +4.7200702e+02 </wgt>
<wgt id='73'> +4.7068957e+02 </wgt>
<wgt id='74'> +5.5546150e+02 </wgt>
<wgt id='75'> +5.2889382e+02 </wgt>
<wgt id='76'> +5.0769826e+02 </wgt>
<wgt id='77'> +4.8918164e+02 </wgt>
<wgt id='78'> +4.5801620e+02 </wgt>
<wgt id='79'> +5.1592795e+02 </wgt>
<wgt id='80'> +4.7092806e+02 </wgt>
<wgt id='81'> +5.0377016e+02 </wgt>
<wgt id='82'> +4.8898573e+02 </wgt>
<wgt id='83'> +5.0660200e+02 </wgt>
<wgt id='84'> +5.2534945e+02 </wgt>
<wgt id='85'> +4.8909275e+02 </wgt>
<wgt id='86'> +5.1774182e+02 </wgt>
<wgt id='87'> +5.0550283e+02 </wgt>
<wgt id='88'> +5.0081474e+02 </wgt>
<wgt id='89'> +4.7911378e+02 </wgt>
<wgt id='90'> +4.9834786e+02 </wgt>
<wgt id='91'> +4.8360722e+02 </wgt>
<wgt id='92'> +4.5913988e+02 </wgt>
<wgt id='93'> +5.0614489e+02 </wgt>
<wgt id='94'> +4.7506445e+02 </wgt>
<wgt id='95'> +5.1418806e+02 </wgt>
<wgt id='96'> +5.3888635e+02 </wgt>
<wgt id='97'> +4.7965839e+02 </wgt>
<wgt id='98'> +5.1352939e+02 </wgt>
<wgt id='99'> +4.5169514e+02 </wgt>
<wgt id='100'> +4.2639466e+02 </wgt>
<wgt id='101'> +5.7960047e+02 </wgt>
<wgt id='102'> +5.4657311e+02 </wgt>
<wgt id='103'> +5.2110536e+02 </wgt>
<wgt id='104'> +5.2494287e+02 </wgt>
<wgt id='105'> +5.1880975e+02 </wgt>
<wgt id='106'> +4.6682431e+02 </wgt>
<wgt id='107'> +4.7629152e+02 </wgt>
<wgt id='108'> +4.5093172e+02 </wgt>
<wgt id='109'> +4.8341052e+02 </wgt>
<wgt id='110'> +4.8372650e+02 </wgt>
<wgt id='111'> +4.9074563e+02 </wgt>
<wgt id='112'> +4.9720749e+02 </wgt>
<wgt id='113'> +4.8840352e+02 </wgt>
<wgt id='114'> +5.0549850e+02 </wgt>
<wgt id='115'> +4.6831678e+02 </wgt>
<wgt id='116'> +5.4127765e+02 </wgt>
<wgt id='117'> +4.9497029e+02 </wgt>
<wgt id='118'> +5.3124107e+02 </wgt>
<wgt id='119'> +5.1688508e+02 </wgt>
<wgt id='120'> +5.0093248e+02 </wgt>
<wgt id='121'> +4.9752788e+02 </wgt>
<wgt id='122'> +4.9710349e+02 </wgt>
<wgt id='123'> +4.9964706e+02 </wgt>
<wgt id='124'> +5.7219709e+02 </wgt>
<wgt id='125'> +5.9937939e+02 </wgt>
<wgt id='126'> +5.1071631e+02 </wgt>
<wgt id='127'> +5.0480328e+02 </wgt>
<wgt id='128'> +4.6659482e+02 </wgt>
<wgt id='129'> +5.4824401e+02 </wgt>
<wgt id='130'> +4.9190842e+02 </wgt>
<wgt id='131'> +4.9928846e+02 </wgt>
<wgt id='132'> +5.4529550e+02 </wgt>
<wgt id='133'> +5.3660228e+02 </wgt>
<wgt id='134'> +5.0739633e+02 </wgt>
<wgt id='135'> +4.9871684e+02 </wgt>
<wgt id='136'> +5.5844196e+02 </wgt>
<wgt id='137'> +5.0127138e+02 </wgt>
<wgt id='138'> +4.9535125e+02 </wgt>
<wgt id='139'> +5.2157401e+02 </wgt>
<wgt id='140'> +5.0574920e+02 </wgt>
<wgt id='141'> +5.3872563e+02 </wgt>
<wgt id='142'> +4.2017800e+02 </wgt>
<wgt id='143'> +5.1803937e+02 </wgt>
<wgt id='144'> +4.7557932e+02 </wgt>
<wgt id='145'> +4.8424621e+02 </wgt>
</rwgt>
</event>
<event>
 4      1 +5.0481800e+02 1.91817000e+02 7.54677100e-03 1.15683300e-01
       -1 -1    0    0    0  501 -0.0000000000e+00 +0.0000000000e+00 +4.0989873016e+02 4.0989873016e+02 0.0000000000e+00 0.0000e+00 1.0000e+00
        1 -1    0    0  502    0 +0.0000000000e+00 -0.0000000000e+00 -1.0464120718e+02 1.0464120718e+02 0.0000000000e+00 0.0000e+00 -1.0000e+00
        6  1    1    2  502    0 +1.1459659489e+01 +8.2057506778e+01 +2.4963783689e+02 3.1482186681e+02 1.7300000000e+02 0.0000e+00 -1.0000e+00
       -6  1    1    2    0  501 -1.1459659489e+01 -8.2057506778e+01 +5.5619686089e+01 1.9971807053e+02 1.7300000000e+02 0.0000e+00 -1.0000e+00
<mgrwt>
<rscale>  2 0.19181699E+03</rscale>
<asrwt>0</asrwt>
<pdfrwt beam="2">  1        1 0.16098647E-01 0.19181699E+03</pdfrwt>
<pdfrwt beam="1">  1       -1 0.63061342E-01 0.19181699E+03</pdfrwt>
<totfact> 0.89158080E+02</totfact>
</mgrwt>
<rwgt>
<wgt id='1'> +6.1107890e+02 </wgt>
<wgt id='2'> +5.5739993e+02 </wgt>
<wgt id='3'> +5.0481800e+02 </wgt>
<wgt id='4'> +6.1107890e+02 </wgt>
<wgt id='5'> +4.9536016e+02 </wgt>
<wgt id='6'> +6.1960173e+02 </wgt>
<wgt id='7'> +5.6330692e+02 </wgt>
<wgt id='8'> +5.0843321e+02 </wgt>
<wgt id='9'> +6.1960173e+02 </wgt>
<wgt id='10'> +4.9858045e+02 </wgt>
<wgt id='11'> +6.2403896e+02 </wgt>
<wgt id='12'> +5.6584911e+02 </wgt>
<wgt id='13'> +5.0939245e+02 </wgt>
<wgt id='14'> +6.2403896e+02 </wgt>
<wgt id='15'> +4.9927315e+02 </wgt>
<wgt id='16'> +4.9787406e+02 </wgt>
<wgt id='17'> +4.6200682e+02 </wgt>
<wgt id='18'> +4.2495562e+02 </wgt>
<wgt id='19'> +4.9787406e+02 </wgt>
<wgt id='20'> +4.1776166e+02 </wgt>
<wgt id='21'> +4.6690288e+02 </wgt>
<wgt id='22'> +4.2799891e+02 </wgt>
<wgt id='23'> +5.0481800e+02 </wgt>
<wgt id='24'> +4.2047749e+02 </wgt>
<wgt id='25'> +5.0843321e+02 </wgt>
<wgt id='26'> +4.6901001e+02 </wgt>
<wgt id='27'> +4.2880640e+02 </wgt>
<wgt id='28'> +5.0843321e+02 </wgt>
<wgt id='29'> +4.2106168e+02 </wgt>
<wgt id='30'> +4.1911022e+02 </wgt>
<wgt id='31'> +3.9152579e+02 </wgt>
<wgt id='32'> +3.6265888e+02 </wgt>
<wgt id='33'> +4.1911022e+02 </wgt>
<wgt id='34'> +3.5701331e+02 </wgt>
<wgt id='35'> +4.2495562e+02 </wgt>
<wgt id='36'> +3.9567494e+02 </wgt>
<wgt id='37'> +3.6525603e+02 </wgt>
<wgt id='38'> +4.2495562e+02 </wgt>
<wgt id='39'> +3.5933422e+02 </wgt>
<wgt id='40'> +4.2799891e+02 </wgt>
<wgt id='41'> +3.9746061e+02 </wgt>
<wgt id='42'> +3.6594515e+02 </wgt>
<wgt id='43'> +4.2799891e+02 </wgt>
<wgt id='44'> +3.5983346e+02 </wgt>
<wgt id='45'> +5.0481800e+02 </wgt>
<wgt id='46'> +5.2039071e+02 </wgt>
<wgt id='47'> +5.0563637e+02 </wgt>
<wgt id='48'> +4.7070691e+02 </wgt>
<wgt id='49'> +4.9626122e+02 </wgt>
<wgt id='50'> +4.5087586e+02 </wgt>
<wgt id='51'> +4.5610499e+02 </wgt>
<wgt id='52'> +5.5175876e+02 </wgt>
<wgt id='53'> +5.4700123e+02 </wgt>
<wgt id='54'> +4.9804906e+02 </wgt>
<wgt id='55'> +4.8578238e+02 </wgt>
<wgt id='56'> +5.0176475e+02 </wgt>
<wgt id='57'> +4.4258400e+02 </wgt>
<wgt id='58'> +5.9214820e+02 </wgt>
<wgt id='59'> +4.5815085e+02 </wgt>
<wgt id='60'> +4.9585106e+02 </wgt>
<wgt id='61'> +4.9782933e+02 </wgt>
<wgt id='62'> +5.3280336e+02 </wgt>
<wgt id='63'> +5.4433488e+02 </wgt>
<wgt id='64'> +4.9283770e+02 </wgt>
<wgt id='65'> +4.6779152e+02 </wgt>
<wgt id='66'> +4.6584945e+02 </wgt>
<wgt id='67'> +5.2907041e+02 </wgt>
<wgt id='68'> +4.5601145e+02 </wgt>
<wgt id='69'> +4.7552930e+02 </wgt>
<wgt id='70'> +5.7657263e+02 </wgt>
<wgt id='71'> +4.7615226e+02 </wgt>
<wgt id='72'> +4.6581109e+02 </wgt>
<wgt id='73'> +5.3030384e+02 </wgt>
<wgt id='74'> +4.9315836e+02 </wgt>
<wgt id='75'> +4.8893325e+02 </wgt>
<wgt id='76'> +5.1606836e+02 </wgt>
<wgt id='77'> +5.1639561e+02 </wgt>
<wgt id='78'> +4.8605944e+02 </wgt>
<wgt id='79'> +5.3388296e+02 </wgt>
<wgt id='80'> +5.0952018e+02 </wgt>
<wgt id='81'> +5.6309531e+02 </wgt>
<wgt id='82'> +4.8889269e+02 </wgt>
<wgt id='83'> +4.6014198e+02 </wgt>
<wgt id='84'> +5.1143940e+02 </wgt>
<wgt id='85'> +4.9222784e+02 </wgt>
<wgt id='86'> +5.6194767e+02 </wgt>
<wgt id='87'> +5.3227975e+02 </wgt>
<wgt id='88'> +4.7787489e+02 </wgt>
<wgt id='89'> +6.1257385e+02 </wgt>
<wgt id='90'> +5.8269204e+02 </wgt>
<wgt id='91'> +4.4473958e+02 </wgt>
<wgt id='92'> +4.8462431e+02 </wgt>
<wgt id='93'> +5.2604876e+02 </wgt>
<wgt id='94'> +5.3294779e+02 </wgt>
<wgt id='95'> +4.7780312e+02 </wgt>
<wgt id='96'> +5.0686467e+02 </wgt>
<wgt id='97'> +4.8943807e+02 </wgt>
<wgt id='98'> +4.9991303e+02 </wgt>
<wgt id='99'> +5.8140939e+02 </wgt>
<wgt id='100'> +4.5129152e+02 </wgt>
<wgt id='101'> +4.8145926e+02 </wgt>
<wgt id='102'> +5.1983156e+02 </wgt>
<wgt id='103'> +5.2678720e+02 </wgt>
<wgt id='104'> +4.4255414e+02 </wgt>
<wgt id='105'> +5.1813346e+02 </wgt>
<wgt id='106'> +5.2092331e+02 </wgt>
<wgt id='107'> +4.9640843e+02 </wgt>
<wgt id='108'> +4.9904871e+02 </wgt>
<wgt id='109'> +4.5982040e+02 </wgt>
<wgt id='110'> +5.5484871e+02 </wgt>
<wgt id='111'> +5.0262147e+02 </wgt>
<wgt id='112'> +4.8284343e+02 </wgt>
<wgt id='113'> +5.2897241e+02 </wgt>
<wgt id='114'> +4.7498684e+02 </wgt>
<wgt id='115'> +4.5771263e+02 </wgt>
<wgt id='116'> +4.7701481e+02 </wgt>
<wgt id='117'> +4.6480542e+02 </wgt>
<wgt id='118'> +5.0975577e+02 </wgt>
<wgt id='119'> +5.4287299e+02 </wgt>
<wgt id='120'> +5.0632622e+02 </wgt>
<wgt id='121'> +4.8112012e+02 </wgt>
<wgt id='122'> +4.9653681e+02 </wgt>
<wgt id='123'> +5.0568318e+02 </wgt>
<wgt id='124'> +4.7643388e+02 </wgt>
<wgt id='125'> +4.5104300e+02 </wgt>
<wgt id='126'> +5.3835332e+02 </wgt>
<wgt id='127'> +5.2511315e+02 </wgt>
<wgt id='128'> +4.8588173e+02 </wgt>
<wgt id='129'> +4.9452915e+02 </wgt>
<wgt id='130'> +4.5670604e+02 </wgt>
<wgt id='131'> +5.3724074e+02 </wgt>
<wgt id='132'> +4.8551257e+02 </wgt>
<wgt id='133'> +6.3283445e+02 </wgt>
<wgt id='134'> +4.5830722e+02 </wgt>
<wgt id='135'> +4.4442732e+02 </wgt>
<wgt id='136'> +5.6350554e+02 </wgt>
<wgt id='137'> +5.0677690e+02 </wgt>
<wgt id='138'> +4.8982766e+02 </wgt>
<wgt id='139'> +6.1543417e+02 </wgt>
<wgt id='140'> +4.8394320e+02 </wgt>
<wgt id='141'> +5.3303318e+02 </wgt>
<wgt id='142'> +4.8807932e+02 </wgt>
<wgt id='143'> +5.1810520e+02 </wgt>
<wgt id='144'> +5.0320633e+02 </wgt>
<wgt id='145'> +5.4229852e+02 </wgt>
</rwgt>
</event>
<event>
 4      1 +5.0481800e+02 2.92391300e+02 7.54677100e-03 1.08910700e-01
       21 -1    0    0  501  502 +0.0000000000e+00 +0.0000000000e+00 +6.6189321797e+02 6.6189321797e+02 0.0000000000e+00 0.0000e+00 -1.0000e+00
       21 -1    0    0  502  503 -0.0000000000e+00 -0.0000000000e+00 -2.7371952377e+02 2.7371952377e+02 0.0000000000e+00 0.0000e+00 -1.0000e+00
        6  1    1    2  501    0 +6.9131354012e+01 -2.2535422634e+02 +5.3404920001e+02 6.0885237904e+02 1.7300000000e+02 0.0000e+00 -1.0000e+00
       -6  1    1    2    0  503 -6.9131354012e+01 +2.2535422634e+02 -1.4587550581e+02 3.2676036270e+02 1.7300000000e+02 0.0000e+00 -1.0000e+00
<mgrwt>
<rscale>  2 0.29239130E+03</rscale>
<asrwt>0</asrwt>
<pdfrwt beam="1">  1       21 0.10182973E+00 0.29239130E+03</pdfrwt>
<pdfrwt beam="2">  1       21 0.42110696E-01 0.29239130E+03</pdfrwt>
<totfact> 0.39886031E+03</totfact>
</mgrwt>
<rwgt>
<wgt id='1'> +6.7562863e+02 </wgt>
<wgt id='2'> +5.2809008e+02 </wgt>
<wgt id='3'> +5.0481800e+02 </wgt>
<wgt id='4'> +6.7562863e+02 </wgt>
<wgt id='5'> +4.3453051e+02 </wgt>
<wgt id='6'> +6.0597949e+02 </wgt>
<wgt id='7'> +4.7317673e+02 </wgt>
<wgt id='8'> +4.5262720e+02 </wgt>
<wgt id='9'> +6.0597949e+02 </wgt>
<wgt id='10'> +3.9050369e+02 </wgt>
<wgt id='11'> +5.4333007e+02 </wgt>
<wgt id='12'> +4.2577842e+02 </wgt>
<wgt id='13'> +4.0756458e+02 </wgt>
<wgt id='14'> +5.4333007e+02 </wgt>
<wgt id='15'> +3.5243962e+02 </wgt>
<wgt id='16'> +5.6284000e+02 </wgt>
<wgt id='17'> +4.4742246e+02 </wgt>
<wgt id='18'> +4.2863240e+02 </wgt>
<wgt id='19'> +5.6284000e+02 </wgt>
<wgt id='20'> +3.7152376e+02 </wgt>
<wgt id='21'> +4.0089732e+02 </wgt>
<wgt id='22'> +3.8431808e+02 </wgt>
<wgt id='23'> +5.0481800e+02 </wgt>
<wgt id='24'> +3.3388081e+02 </wgt>
<wgt id='25'> +4.5262720e+02 </wgt>
<wgt id='26'> +3.6073927e+02 </wgt>
<wgt id='27'> +3.4605617e+02 </wgt>
<wgt id='28'> +4.5262720e+02 </wgt>
<wgt id='29'> +3.0133602e+02 </wgt>
<wgt id='30'> +4.7789790e+02 </wgt>
<wgt id='31'> +3.8392082e+02 </wgt>
<wgt id='32'> +3.6847503e+02 </wgt>
<wgt id='33'> +4.7789790e+02 </wgt>
<wgt id='34'> +3.2128858e+02 </wgt>
<wgt id='35'> +4.2863240e+02 </wgt>
<wgt id='36'> +3.4399889e+02 </wgt>
<wgt id='37'> +3.3038009e+02 </wgt>
<wgt id='38'> +4.2863240e+02 </wgt>
<wgt id='39'> +2.8873548e+02 </wgt>
<wgt id='40'> +3.8431808e+02 </wgt>
<wgt id='41'> +3.0954037e+02 </wgt>
<wgt id='42'> +2.9748814e+02 </wgt>
<wgt id='43'> +3.8431808e+02 </wgt>
<wgt id='44'> +2.6059120e+02 </wgt>
<wgt id='45'> +5.0481800e+02 </wgt>
<wgt id='46'> +5.2486790e+02 </wgt>
<wgt id='47'> +5.2907798e+02 </wgt>
<wgt id='48'> +5.1470359e+02 </wgt>
<wgt id='49'> +4.9401195e+02 </wgt>
<wgt id='50'> +6.3545036e+02 </wgt>
<wgt id='51'> +4.9096335e+02 </wgt>
<wgt id='52'> +5.0262531e+02 </wgt>
<wgt id='53'> +4.9436779e+02 </wgt>
<wgt id='54'> +5.1476859e+02 </wgt>
<wgt id='55'> +4.7434002e+02 </wgt>
<wgt id='56'> +4.5159991e+02 </wgt>
<wgt id='57'> +5.0503054e+02 </wgt>
<wgt id='58'> +4.8244075e+02 </wgt>
<wgt id='59'> +5.3103725e+02 </wgt>
<wgt id='60'> +5.0755065e+02 </wgt>
<wgt id='61'> +4.3296510e+02 </wgt>
<wgt id='62'> +4.9502355e+02 </wgt>
<wgt id='63'> +5.0876376e+02 </wgt>
<wgt id='64'> +4.8736705e+02 </wgt>
<wgt id='65'> +5.6415787e+02 </wgt>
<wgt id='66'> +4.9908749e+02 </wgt>
<wgt id='67'> +5.0789863e+02 </wgt>
<wgt id='68'> +5.7200990e+02 </wgt>
<wgt id='69'> +5.2070434e+02 </wgt>
<wgt id='70'> +4.9881766e+02 </wgt>
<wgt id='71'> +5.0676852e+02 </wgt>
<wgt id='72'> +4.6325158e+02 </wgt>
<wgt id='73'> +4.8097983e+02 </wgt>
<wgt id='74'> +5.4764185e+02 </wgt>
<wgt id='75'> +5.2264909e+02 </wgt>
<wgt id='76'> +4.9486863e+02 </wgt>
<wgt id='77'> +4.9724719e+02 </wgt>
<wgt id='78'> +4.7135672e+02 </wgt>
<wgt id='79'> +5.0508545e+02 </wgt>
<wgt id='80'> +4.8462840e+02 </wgt>
<wgt id='81'> +4.9256793e+02 </wgt>
<wgt id='82'> +4.9443176e+02 </wgt>
<wgt id='83'> +5.1789189e+02 </wgt>
<wgt id='84'> +5.4936330e+02 </wgt>
<wgt id='85'> +5.1336178e+02 </wgt>
<wgt id='86'> +5.1565913e+02 </wgt>
<wgt id='87'> +5.1046246e+02 </wgt>
<wgt id='88'> +5.1222541e+02 </wgt>
<wgt id='89'> +5.0976683e+02 </wgt>
<wgt id='90'> +5.1319797e+02 </wgt>
<wgt id='91'> +5.1212313e+02 </wgt>
<wgt id='92'> +4.4040733e+02 </wgt>
<wgt id='93'> +5.0765234e+02 </wgt>
<wgt id='94'> +4.8166917e+02 </wgt>
<wgt id='95'> +4.9259189e+02 </wgt>
<wgt id='96'> +5.5727065e+02 </wgt>
<wgt id='97'> +4.9185977e+02 </wgt>
<wgt id='98'> +4.9796671e+02 </wgt>
<wgt id='99'> +4.6989051e+02 </wgt>
<wgt id='100'> +4.5003351e+02 </wgt>
<wgt id='101'> +5.7916647e+02 </wgt>
<wgt id='102'> +5.3758075e+02 </wgt>
<wgt id='103'> +5.4888453e+02 </wgt>
<wgt id='104'> +5.1881637e+02 </wgt>
<wgt id='105'> +5.1376104e+02 </wgt>
<wgt id='106'> +4.4439447e+02 </wgt>
<wgt id='107'> +4.6660410e+02 </wgt>
<wgt id='108'> +4.3112513e+02 </wgt>
<wgt id='109'> +4.6561185e+02 </wgt>
<wgt id='110'> +4.9327526e+02 </wgt>
<wgt id='111'> +4.8465175e+02 </wgt>
<wgt id='112'> +4.7317774e+02 </wgt>
<wgt id='113'> +4.6217032e+02 </wgt>
<wgt id='114'> +4.8194882e+02 </wgt>
<wgt id='115'> +4.6745461e+02 </wgt>
<wgt id='116'> +5.3949227e+02 </wgt>
<wgt id='117'> +4.9559763e+02 </wgt>
<wgt id='118'> +5.4185110e+02 </wgt>
<wgt id='119'> +4.9007853e+02 </wgt>
<wgt id='120'> +4.8762007e+02 </wgt>
<wgt id='121'> +4.8823172e+02 </wgt>
<wgt id='122'> +4.9593363e+02 </wgt>
<wgt id='123'> +5.1191068e+02 </wgt>
<wgt id='124'> +5.7658650e+02 </wgt>
<wgt id='125'> +5.8405541e+02 </wgt>
<wgt id='126'> +5.2649638e+02 </wgt>
<wgt id='127'> +5.2095930e+02 </wgt>
<wgt id='128'> +4.5399660e+02 </wgt>
<wgt id='129'> +5.6941884e+02 </wgt>
<wgt id='130'> +5.0630584e+02 </wgt>
<wgt id='131'> +5.2315360e+02 </wgt>
<wgt id='132'> +5.3585332e+02 </wgt>
<wgt id='133'> +5.3045642e+02 </wgt>
<wgt id='134'> +4.9216832e+02 </wgt>
<wgt id='135'> +5.1008667e+02 </wgt>
<wgt id='136'> +5.2813671e+02 </wgt>
<wgt id='137'> +4.9096286e+02 </wgt>
<wgt id='138'> +4.9045249e+02 </wgt>
<wgt id='139'> +5.2498352e+02 </wgt>
<wgt id='140'> +5.1440879e+02 </wgt>
<wgt id='141'> +5.2140863e+02 </wgt>
<wgt id='142'> +4.5890076e+02 </wgt>
<wgt id='143'> +5.1723386e+02 </wgt>
<wgt id='144'> +4.8350946e+02 </wgt>
<wgt id='145'> +4.9873836e+02 </wgt>
</rwgt>
</event>
<event>
 4      1 +5.0481800e+02 1.85959300e+02 7.54677100e-03 1.16215700e-01
        3 -1    0    0  502    0 +0.0000000000e+00 +0.0000000000e+00 +6.6856284388e+01 6.6856284388e+01 0.0000000000e+00 0.0000e+00 1.0000e+00
       -3 -1    0    0    0  501 -0.0000000000e+00 -0.0000000000e+00 -5.2735704841e+02 5.2735704841e+02 0.0000000000e+00 0.0000e+00 -1.0000e+00
        6  1    1    2  502    0 +4.1317718606e+01 +5.4265318419e+01 -1.8910284241e+02 2.6521833206e+02 1.7300000000e+02 0.0000e+00 1.0000e+00
       -6  1    1    2    0  501 -4.1317718606e+01 -5.4265318419e+01 -2.7139792161e+02 3.2899500073e+02 1.7300000000e+02 0.0000e+00 -1.0000e+00
<mgrwt>
<rscale>  2 0.18595935E+03</rscale>
<asrwt>0</asrwt>
<pdfrwt beam="1">  1        3 0.10285582E-01 0.18595935E+03</pdfrwt>
<pdfrwt beam="2">  1       -3 0.81131855E-01 0.18595935E+03</pdfrwt>
<totfact> 0.24654413E+02</totfact>
</mgrwt>
<rwgt>
<wgt id='1'> +5.6741334e+02 </wgt>
<wgt id='2'> +5.7590351e+02 </wgt>
<wgt id='3'> +5.0481800e+02 </wgt>
<wgt id='4'> +5.6741334e+02 </wgt>
<wgt id='5'> +5.0405152e+02 </wgt>
<wgt id='6'> +6.2049560e+02 </wgt>
<wgt id='7'> +6.3191970e+02 </wgt>
<wgt id='8'> +5.3988814e+02 </wgt>
<wgt id='9'> +6.2049561e+02 </wgt>
<wgt id='10'> +5.3892371e+02 </wgt>
<wgt id='11'> +6.6360196e+02 </wgt>
<wgt id='12'> +6.7751550e+02 </wgt>
<wgt id='13'> +5.6788366e+02 </wgt>
<wgt id='14'> +6.6360197e+02 </wgt>
<wgt id='15'> +5.6675670e+02 </wgt>
<wgt id='16'> +4.6163174e+02 </wgt>
<wgt id='17'> +4.6662071e+02 </wgt>
<wgt id='18'> +4.2457509e+02 </wgt>
<wgt id='19'> +4.6163174e+02 </wgt>
<wgt id='20'> +4.2405145e+02 </wgt>
<wgt id='21'> +5.1200733e+02 </wgt>
<wgt id='22'> +4.5407068e+02 </wgt>
<wgt id='23'> +5.0481800e+02 </wgt>
<wgt id='24'> +4.5338893e+02 </wgt>
<wgt id='25'> +5.3988814e+02 </wgt>
<wgt id='26'> +5.4895092e+02 </wgt>
<wgt id='27'> +4.7761620e+02 </wgt>
<wgt id='28'> +5.3988814e+02 </wgt>
<wgt id='29'> +4.7680443e+02 </wgt>
<wgt id='30'> +3.8825347e+02 </wgt>
<wgt id='31'> +3.9131216e+02 </wgt>
<wgt id='32'> +3.6213016e+02 </wgt>
<wgt id='33'> +3.8825347e+02 </wgt>
<wgt id='34'> +3.6174721e+02 </wgt>
<wgt id='35'> +4.2457509e+02 </wgt>
<wgt id='36'> +4.2937376e+02 </wgt>
<wgt id='37'> +3.8728765e+02 </wgt>
<wgt id='38'> +4.2457509e+02 </wgt>
<wgt id='39'> +3.8677425e+02 </wgt>
<wgt id='40'> +4.5407068e+02 </wgt>
<wgt id='41'> +4.6035498e+02 </wgt>
<wgt id='42'> +4.0737018e+02 </wgt>
<wgt id='43'> +4.5407068e+02 </wgt>
<wgt id='44'> +4.0674940e+02 </wgt>
<wgt id='45'> +5.0481800e+02 </wgt>
<wgt id='46'> +5.1048809e+02 </wgt>
<wgt id='47'> +4.6741050e+02 </wgt>
<wgt id='48'> +5.4187645e+02 </wgt>
<wgt id='49'> +5.4522271e+02 </wgt>
<wgt id='50'> +4.9257752e+02 </wgt>
<wgt id='51'> +4.9337529e+02 </wgt>
<wgt id='52'> +5.4376649e+02 </wgt>
<wgt id='53'> +4.4170299e+02 </wgt>
<wgt id='54'> +4.7914536e+02 </wgt>
<wgt id='55'> +5.1733939e+02 </wgt>
<wgt id='56'> +3.9043788e+02 </wgt>
<wgt id='57'> +6.4055355e+02 </wgt>
<wgt id='58'> +4.5695458e+02 </wgt>
<wgt id='59'> +5.0814365e+02 </wgt>
<wgt id='60'> +4.9059571e+02 </wgt>
<wgt id='61'> +5.4489876e+02 </wgt>
<wgt id='62'> +4.4518282e+02 </wgt>
<wgt id='63'> +4.8217965e+02 </wgt>
<wgt id='64'> +5.6577972e+02 </wgt>
<wgt id='65'> +5.5330734e+02 </wgt>
<wgt id='66'> +4.4995046e+02 </wgt>
<wgt id='67'> +4.0812132e+02 </wgt>
<wgt id='68'> +5.7441249e+02 </wgt>
<wgt id='69'> +5.8740044e+02 </wgt>
<wgt id='70'> +4.1089488e+02 </wgt>
<wgt id='71'> +3.9694719e+02 </wgt>
<wgt id='72'> +5.2146014e+02 </wgt>
<wgt id='73'> +4.9121848e+02 </wgt>
<wgt id='74'> +6.0054088e+02 </wgt>
<wgt id='75'> +5.5269717e+02 </wgt>
<wgt id='76'> +4.7391182e+02 </wgt>
<wgt id='77'> +5.7335228e+02 </wgt>
<wgt id='78'> +5.7792217e+02 </wgt>
<wgt id='79'> +4.0986456e+02 </wgt>
<wgt id='80'> +4.7904784e+02 </wgt>
<wgt id='81'> +4.8371451e+02 </wgt>
<wgt id='82'> +4.5353748e+02 </wgt>
<wgt id='83'> +6.3049839e+02 </wgt>
<wgt id='84'> +5.1299005e+02 </wgt>
<wgt id='85'> +5.5496354e+02 </wgt>
<wgt id='86'> +3.7181745e+02 </wgt>
<wgt id='87'> +5.0910615e+02 </wgt>
<wgt id='88'> +5.8155233e+02 </wgt>
<wgt id='89'> +4.7891547e+02 </wgt>
<wgt id='90'> +4.2332092e+02 </wgt>
<wgt id='91'> +5.9488695e+02 </wgt>
<wgt id='92'> +5.3172509e+02 </wgt>
<wgt id='93'> +5.1825332e+02 </wgt>
<wgt id='94'> +4.6930300e+02 </wgt>
<wgt id='95'> +5.8126299e+02 </wgt>
<wgt id='96'> +5.2143736e+02 </wgt>
<wgt id='97'> +4.4183784e+02 </wgt>
<wgt id='98'> +3.8726178e+02 </wgt>
<wgt id='99'> +4.8464976e+02 </wgt>
<wgt id='100'> +4.7854077e+02 </wgt>
<wgt id='101'> +5.1768340e+02 </wgt>
<wgt id='102'> +6.0856837e+02 </wgt>
<wgt id='103'> +6.0512666e+02 </wgt>
<wgt id='104'> +3.7418181e+02 </wgt>
<wgt id='105'> +4.5003212e+02 </wgt>
<wgt id='106'> +4.7331791e+02 </wgt>
<wgt id='107'> +4.9368931e+02 </wgt>
<wgt id='108'> +4.2937297e+02 </wgt>
<wgt id='109'> +4.5357642e+02 </wgt>
<wgt id='110'> +4.4645856e+02 </wgt>
<wgt id='111'> +5.0254505e+02 </wgt>
<wgt id='112'> +5.8424353e+02 </wgt>
<wgt id='113'> +5.0836099e+02 </wgt>
<wgt id='114'> +4.2604083e+02 </wgt>
<wgt id='115'> +4.6603073e+02 </wgt>
<wgt id='116'> +5.1293989e+02 </wgt>
<wgt id='117'> +5.9852680e+02 </wgt>
<wgt id='118'> +6.9763676e+02 </wgt>
<wgt id='119'> +4.5581390e+02 </wgt>
<wgt id='120'> +6.0191750e+02 </wgt>
<wgt id='121'> +5.1018938e+02 </wgt>
<wgt id='122'> +4.8557647e+02 </wgt>
<wgt id='123'> +4.1616462e+02 </wgt>
<wgt id='124'> +5.4587897e+02 </wgt>
<wgt id='125'> +5.5620973e+02 </wgt>
<wgt id='126'> +4.9994223e+02 </wgt>
<wgt id='127'> +5.2858599e+02 </wgt>
<wgt id='128'> +4.4390463e+02 </wgt>
<wgt id='129'> +5.3576579e+02 </wgt>
<wgt id='130'> +6.6815070e+02 </wgt>
<wgt id='131'> +5.2367085e+02 </wgt>
<wgt id='132'> +6.4062111e+02 </wgt>
<wgt id='133'> +4.4159920e+02 </wgt>
<wgt id='134'> +6.0996083e+02 </wgt>
<wgt id='135'> +5.7773154e+02 </wgt>
<wgt id='136'> +4.0146267e+02 </wgt>
<wgt id='137'> +3.9694376e+02 </wgt>
<wgt id='138'> +5.0694879e+02 </wgt>
<wgt id='139'> +4.6248680e+02 </wgt>
<wgt id='140'> +5.7522352e+02 </wgt>
<wgt id='141'> +5.1898110e+02 </wgt>
<wgt id='142'> +4.9004987e+02 </wgt>
<wgt id='143'> +4.4579118e+02 </wgt>
<wgt id='144'> +4.6263321e+02 </wgt>
<wgt id='145'> +4.9958149e+02 </wgt>
</rwgt>
</event>
<event>
 4      1 +5.0481800e+02 2.39243700e+02 7.54677100e-03 1.12029800e-01
       21 -1    0    0  501  502 +0.0000000000e+00 +0.0000000000e+00 +1.4865664926e+02 1.4865664926e+02 0.0000000000e+00 0.0000e+00 -1.0000e+00
       21 -1    0    0  502  503 -0.0000000000e+00 -0.0000000000e+00 -3.8978494510e+02 3.8978494510e+02 0.0000000000e+00 0.0000e+00 -1.0000e+00
        6  1    1    2  501    0 -5.4686223260e+01 +1.5594222928e+02 -9.0835234326e+01 2.5590740841e+02 1.7300000000e+02 0.0000e+00 -1.0000e+00
       -6  1    1    2    0  503 +5.4686223260e+01 -1.5594222928e+02 -1.5029306152e+02 2.8253418594e+02 1.7300000000e+02 0.0000e+00 -1.0000e+00
<mgrwt>
<rscale>  2 0.23924373E+03</rscale>
<asrwt>0</asrwt>
<pdfrwt beam="1">  1       21 0.22870253E-01 0.23924373E+03</pdfrwt>
<pdfrwt beam="2">  1       21 0.59966915E-01 0.23924373E+03</pdfrwt>
<totfact> 0.45535886E+04</totfact>
</mgrwt>
<rwgt>
<wgt id='1'> +6.5001620e+02 </wgt>
<wgt id='2'> +5.2292538e+02 </wgt>
<wgt id='3'> +5.0481800e+02 </wgt>
<wgt id='4'> +6.5001620e+02 </wgt>
<wgt id='5'> +5.0372451e+02 </wgt>
<wgt id='6'> +6.1225204e+02 </wgt>
<wgt id='7'> +4.8735357e+02 </wgt>
<wgt id='8'> +4.7052287e+02 </wgt>
<wgt id='9'> +6.1225204e+02 </wgt>
<wgt id='10'> +4.6950372e+02 </wgt>
<wgt id='11'> +5.7065831e+02 </wgt>
<wgt id='12'> +4.5439865e+02 </wgt>
<wgt id='13'> +4.3875465e+02 </wgt>
<wgt id='14'> +5.7065831e+02 </wgt>
<wgt id='15'> +4.3780748e+02 </wgt>
<wgt id='16'> +5.3595555e+02 </wgt>
<wgt id='17'> +4.4139357e+02 </wgt>
<wgt id='18'> +4.2693470e+02 </wgt>
<wgt id='19'> +5.3595555e+02 </wgt>
<wgt id='20'> +4.2606288e+02 </wgt>
<wgt id='21'> +4.1136794e+02 </wgt>
<wgt id='22'> +3.9793061e+02 </wgt>
<wgt id='23'> +5.0481800e+02 </wgt>
<wgt id='24'> +3.9711807e+02 </wgt>
<wgt id='25'> +4.7052287e+02 </wgt>
<wgt id='26'> +3.8355118e+02 </wgt>
<wgt id='27'> +3.7106360e+02 </wgt>
<wgt id='28'> +4.7052287e+02 </wgt>
<wgt id='29'> +3.7030859e+02 </wgt>
<wgt id='30'> +4.5326834e+02 </wgt>
<wgt id='31'> +3.7750982e+02 </wgt>
<wgt id='32'> +3.6577481e+02 </wgt>
<wgt id='33'> +4.5326834e+02 </wgt>
<wgt id='34'> +3.6506663e+02 </wgt>
<wgt id='35'> +4.2693469e+02 </wgt>
<wgt id='36'> +3.5182985e+02 </wgt>
<wgt id='37'> +3.4092567e+02 </wgt>
<wgt id='38'> +4.2693470e+02 </wgt>
<wgt id='39'> +3.4026564e+02 </wgt>
<wgt id='40'> +3.9793061e+02 </wgt>
<wgt id='41'> +3.2803907e+02 </wgt>
<wgt id='42'> +3.1790744e+02 </wgt>
<wgt id='43'> +3.9793061e+02 </wgt>
<wgt id='44'> +3.1729427e+02 </wgt>
<wgt id='45'> +5.0481800e+02 </wgt>
<wgt id='46'> +5.0881328e+02 </wgt>
<wgt id='47'> +5.2365907e+02 </wgt>
<wgt id='48'> +5.0819646e+02 </wgt>
<wgt id='49'> +5.0242949e+02 </wgt>
<wgt id='50'> +5.9614903e+02 </wgt>
<wgt id='51'> +4.9483609e+02 </wgt>
<wgt id='52'> +5.0274293e+02 </wgt>
<wgt id='53'> +5.0704466e+02 </wgt>
<wgt id='54'> +5.0838956e+02 </wgt>
<wgt id='55'> +4.5565335e+02 </wgt>
<wgt id='56'> +4.6628823e+02 </wgt>
<wgt id='57'> +4.9383325e+02 </wgt>
<wgt id='58'> +5.0376465e+02 </wgt>
<wgt id='59'> +5.0390237e+02 </wgt>
<wgt id='60'> +4.8962301e+02 </wgt>
<wgt id='61'> +4.7972686e+02 </wgt>
<wgt id='62'> +4.9827553e+02 </wgt>
<wgt id='63'> +5.0547096e+02 </wgt>
<wgt id='64'> +4.9702848e+02 </wgt>
<wgt id='65'> +5.8865172e+02 </wgt>
<wgt id='66'> +4.9414717e+02 </wgt>
<wgt id='67'> +5.0911352e+02 </wgt>
<wgt id='68'> +5.4561373e+02 </wgt>
<wgt id='69'> +4.9743678e+02 </wgt>
<wgt id='70'> +4.9648526e+02 </wgt>
<wgt id='71'> +5.1352351e+02 </wgt>
<wgt id='72'> +4.8586627e+02 </wgt>
<wgt id='73'> +4.9561891e+02 </wgt>
<wgt id='74'> +5.2429020e+02 </wgt>
<wgt id='75'> +5.1666772e+02 </wgt>
<wgt id='76'> +4.9106879e+02 </wgt>
<wgt id='77'> +4.8929383e+02 </wgt>
<wgt id='78'> +4.9900904e+02 </wgt>
<wgt id='79'> +4.8827055e+02 </wgt>
<wgt id='80'> +4.9815830e+02 </wgt>
<wgt id='81'> +4.9478291e+02 </wgt>
<wgt id='82'> +5.1365253e+02 </wgt>
<wgt id='83'> +5.1572434e+02 </wgt>
<wgt id='84'> +5.5323509e+02 </wgt>
<wgt id='85'> +5.2800665e+02 </wgt>
<wgt id='86'> +5.0397316e+02 </wgt>
<wgt id='87'> +5.0613270e+02 </wgt>
<wgt id='88'> +5.1324324e+02 </wgt>
<wgt id='89'> +5.1655880e+02 </wgt>
<wgt id='90'> +5.1186181e+02 </wgt>
<wgt id='91'> +5.3290044e+02 </wgt>
<wgt id='92'> +4.6052132e+02 </wgt>
<wgt id='93'> +4.9850391e+02 </wgt>
<wgt id='94'> +4.9879968e+02 </wgt>
<wgt id='95'> +4.8565220e+02 </wgt>
<wgt id='96'> +5.4720062e+02 </wgt>
<wgt id='97'> +5.0906645e+02 </wgt>
<wgt id='98'> +4.8449695e+02 </wgt>
<wgt id='99'> +4.8742897e+02 </wgt>
<wgt id='100'> +4.9226662e+02 </wgt>
<wgt id='101'> +5.3859105e+02 </wgt>
<wgt id='102'> +4.9887345e+02 </wgt>
<wgt id='103'> +5.4852676e+02 </wgt>
<wgt id='104'> +5.0619228e+02 </wgt>
<wgt id='105'> +5.2224930e+02 </wgt>
<wgt id='106'> +4.6073964e+02 </wgt>
<wgt id='107'> +4.9212581e+02 </wgt>
<wgt id='108'> +4.4854625e+02 </wgt>
<wgt id='109'> +4.7249164e+02 </wgt>
<wgt id='110'> +5.0391939e+02 </wgt>
<wgt id='111'> +4.9040895e+02 </wgt>
<wgt id='112'> +4.7925997e+02 </wgt>
<wgt id='113'> +4.6308034e+02 </wgt>
<wgt id='114'> +4.9818550e+02 </wgt>
<wgt id='115'> +4.9751295e+02 </wgt>
<wgt id='116'> +5.1052361e+02 </wgt>
<wgt id='117'> +5.0809084e+02 </wgt>
<wgt id='118'> +5.2212020e+02 </wgt>
<wgt id='119'> +4.8554920e+02 </wgt>
<wgt id='120'> +4.9833844e+02 </wgt>
<wgt id='121'> +4.9014017e+02 </wgt>
<wgt id='122'> +4.9811694e+02 </wgt>
<wgt id='123'> +5.1156945e+02 </wgt>
<wgt id='124'> +5.4528315e+02 </wgt>
<wgt id='125'> +5.4678113e+02 </wgt>
<wgt id='126'> +5.2471629e+02 </wgt>
<wgt id='127'> +5.2029915e+02 </wgt>
<wgt id='128'> +4.6575876e+02 </wgt>
<wgt id='129'> +5.7068472e+02 </wgt>
<wgt id='130'> +5.0800181e+02 </wgt>
<wgt id='131'> +5.3750107e+02 </wgt>
<wgt id='132'> +5.0659291e+02 </wgt>
<wgt id='133'> +5.0652851e+02 </wgt>
<wgt id='134'> +4.7843421e+02 </wgt>
<wgt id='135'> +5.1646876e+02 </wgt>
<wgt id='136'> +4.9179245e+02 </wgt>
<wgt id='137'> +4.7834472e+02 </wgt>
<wgt id='138'> +4.6514930e+02 </wgt>
<wgt id='139'> +5.1635362e+02 </wgt>
<wgt id='140'> +5.3194701e+02 </wgt>
<wgt id='141'> +5.0638708e+02 </wgt>
<wgt id='142'> +4.9955551e+02 </wgt>
<wgt id='143'> +5.0408122e+02 </wgt>
<wgt id='144'> +5.0108679e+02 </wgt>
<wgt id='145'> +5.0551063e+02 </wgt>
</rwgt>
</event>
<event>
 4      1 +5.0481800e+02 2.18635300e+02 7.54677100e-03 1.13490500e-01
       21 -1    0    0  503  502 +0.0000000000e+00 +0.0000000000e+00 +1.7501407711e+02 1.7501407711e+02 0.0000000000e+00 0.0000e+00 -1.0000e+00
       21 -1    0    0  501  503 -0.0000000000e+00 -0.0000000000e+00 -3.4791031120e+02 3.4791031120e+02 0.0000000000e+00 0.0000e+00 -1.0000e+00
        6  1    1    2  501    0 +6.4774634744e+01 +1.1694717807e+02 -2.0766753348e+02 3.0154137399e+02 1.7300000000e+02 0.0000e+00 -1.0000e+00
       -6  1    1    2    0  502 -6.4774634744e+01 -1.1694717807e+02 +3.4771299392e+01 2.2138301431e+02 1.7300000000e+02 0.0000e+00 -1.0000e+00
<mgrwt>
<rscale>  2 0.21863530E+03</rscale>
<asrwt>0</asrwt>
<pdfrwt beam="1">  1       21 0.26925243E-01 0.21863530E+03</pdfrwt>
<pdfrwt beam="2">  1       21 0.53524663E-01 0.21863530E+03</pdfrwt>
<totfact> 0.42850824E+04</totfact>
</mgrwt>
<rwgt>
<wgt id='1'> +6.5193181e+02 </wgt>
<wgt id='2'> +5.3224481e+02 </wgt>
<wgt id='3'> +5.0481800e+02 </wgt>
<wgt id='4'> +6.5193181e+02 </wgt>
<wgt id='5'> +4.8355938e+02 </wgt>
<wgt id='6'> +6.1521660e+02 </wgt>
<wgt id='7'> +4.9582938e+02 </wgt>
<wgt id='8'> +4.7015588e+02 </wgt>
<wgt id='9'> +6.1521659e+02 </wgt>
<wgt id='10'> +4.5040327e+02 </wgt>
<wgt id='11'> +5.7297422e+02 </wgt>
<wgt id='12'> +4.6196022e+02 </wgt>
<wgt id='13'> +4.3811146e+02 </wgt>
<wgt id='14'> +5.7297422e+02 </wgt>
<wgt id='15'> +4.1977032e+02 </wgt>
<wgt id='16'> +5.3494479e+02 </wgt>
<wgt id='17'> +4.4783708e+02 </wgt>
<wgt id='18'> +4.2618228e+02 </wgt>
<wgt id='19'> +5.3494479e+02 </wgt>
<wgt id='20'> +4.0921060e+02 </wgt>
<wgt id='21'> +4.1719671e+02 </wgt>
<wgt id='22'> +3.9691949e+02 </wgt>
<wgt id='23'> +5.0481800e+02 </wgt>
<wgt id='24'> +3.8115235e+02 </wgt>
<wgt id='25'> +4.7015588e+02 </wgt>
<wgt id='26'> +3.8869879e+02 </wgt>
<wgt id='27'> +3.6986664e+02 </wgt>
<wgt id='28'> +4.7015588e+02 </wgt>
<wgt id='29'> +3.5522931e+02 </wgt>
<wgt id='30'> +4.5161620e+02 </wgt>
<wgt id='31'> +3.8207385e+02 </wgt>
<wgt id='32'> +3.6455860e+02 </wgt>
<wgt id='33'> +4.5161620e+02 </wgt>
<wgt id='34'> +3.5077721e+02 </wgt>
<wgt id='35'> +4.2618228e+02 </wgt>
<wgt id='36'> +3.5593291e+02 </wgt>
<wgt id='37'> +3.3952705e+02 </wgt>
<wgt id='38'> +4.2618228e+02 </wgt>
<wgt id='39'> +3.2672554e+02 </wgt>
<wgt id='40'> +3.9691949e+02 </wgt>
<wgt id='41'> +3.3161981e+02 </wgt>
<wgt id='42'> +3.1638590e+02 </wgt>
<wgt id='43'> +3.9691949e+02 </wgt>
<wgt id='44'> +3.0450420e+02 </wgt>
<wgt id='45'> +5.0481800e+02 </wgt>
<wgt id='46'> +5.0789556e+02 </wgt>
<wgt id='47'> +5.2427599e+02 </wgt>
<wgt id='48'> +5.0809623e+02 </wgt>
<wgt id='49'> +5.0327218e+02 </wgt>
<wgt id='50'> +5.9692156e+02 </wgt>
<wgt id='51'> +4.9502000e+02 </wgt>
<wgt id='52'> +5.0261314e+02 </wgt>
<wgt id='53'> +5.0829926e+02 </wgt>
<wgt id='54'> +5.0792679e+02 </wgt>
<wgt id='55'> +4.5175439e+02 </wgt>
<wgt id='56'> +4.6648271e+02 </wgt>
<wgt id='57'> +4.9185867e+02 </wgt>
<wgt id='58'> +5.0511091e+02 </wgt>
<wgt id='59'> +5.0112841e+02 </wgt>
<wgt id='60'> +4.8740295e+02 </wgt>
<wgt id='61'> +4.8463686e+02 </wgt>
<wgt id='62'> +4.9862798e+02 </wgt>
<wgt id='63'> +5.0529623e+02 </wgt>
<wgt id='64'> +4.9746342e+02 </wgt>
<wgt id='65'> +5.9387998e+02 </wgt>
<wgt id='66'> +4.9356800e+02 </wgt>
<wgt id='67'> +5.0928284e+02 </wgt>
<wgt id='68'> +5.4447963e+02 </wgt>
<wgt id='69'> +4.9625496e+02 </wgt>
<wgt id='70'> +4.9597441e+02 </wgt>
<wgt id='71'> +5.1406566e+02 </wgt>
<wgt id='72'> +4.8567947e+02 </wgt>
<wgt id='73'> +4.9647501e+02 </wgt>
<wgt id='74'> +5.2322500e+02 </wgt>
<wgt id='75'> +5.1679753e+02 </wgt>
<wgt id='76'> +4.8972606e+02 </wgt>
<wgt id='77'> +4.8824840e+02 </wgt>
<wgt id='78'> +5.0129860e+02 </wgt>
<wgt id='79'> +4.8640273e+02 </wgt>
<wgt id='80'> +4.9907718e+02 </wgt>
<wgt id='81'> +4.9445284e+02 </wgt>
<wgt id='82'> +5.1604369e+02 </wgt>
<wgt id='83'> +5.1655495e+02 </wgt>
<wgt id='84'> +5.5552852e+02 </wgt>
<wgt id='85'> +5.3055399e+02 </wgt>
<wgt id='86'> +5.0345080e+02 </wgt>
<wgt id='87'> +5.0589383e+02 </wgt>
<wgt id='88'> +5.1417970e+02 </wgt>
<wgt id='89'> +5.1769928e+02 </wgt>
<wgt id='90'> +5.1156778e+02 </wgt>
<wgt id='91'> +5.3557390e+02 </wgt>
<wgt id='92'> +4.5954058e+02 </wgt>
<wgt id='93'> +4.9786619e+02 </wgt>
<wgt id='94'> +4.9976237e+02 </wgt>
<wgt id='95'> +4.8358503e+02 </wgt>
<wgt id='96'> +5.4882269e+02 </wgt>
<wgt id='97'> +5.1053074e+02 </wgt>
<wgt id='98'> +4.8269596e+02 </wgt>
<wgt id='99'> +4.8852606e+02 </wgt>
<wgt id='100'> +4.9516055e+02 </wgt>
<wgt id='101'> +5.3653353e+02 </wgt>
<wgt id='102'> +4.9588446e+02 </wgt>
<wgt id='103'> +5.5013939e+02 </wgt>
<wgt id='104'> +5.0567843e+02 </wgt>
<wgt id='105'> +5.2269110e+02 </wgt>
<wgt id='106'> +4.5996612e+02 </wgt>
<wgt id='107'> +4.9347618e+02 </wgt>
<wgt id='108'> +4.4801058e+02 </wgt>
<wgt id='109'> +4.7165994e+02 </wgt>
<wgt id='110'> +5.0454730e+02 </wgt>
<wgt id='111'> +4.9007645e+02 </wgt>
<wgt id='112'> +4.7912322e+02 </wgt>
<wgt id='113'> +4.6162470e+02 </wgt>
<wgt id='114'> +4.9883697e+02 </wgt>
<wgt id='115'> +5.0021826e+02 </wgt>
<wgt id='116'> +5.0897931e+02 </wgt>
<wgt id='117'> +5.0948223e+02 </wgt>
<wgt id='118'> +5.2143568e+02 </wgt>
<wgt id='119'> +4.8419683e+02 </wgt>
<wgt id='120'> +4.9957250e+02 </wgt>
<wgt id='121'> +4.8933528e+02 </wgt>
<wgt id='122'> +4.9780321e+02 </wgt>
<wgt id='123'> +5.1221815e+02 </wgt>
<wgt id='124'> +5.4413824e+02 </wgt>
<wgt id='125'> +5.4509994e+02 </wgt>
<wgt id='126'> +5.2570638e+02 </wgt>
<wgt id='127'> +5.2098705e+02 </wgt>
<wgt id='128'> +4.6609828e+02 </wgt>
<wgt id='129'> +5.7259761e+02 </wgt>
<wgt id='130'> +5.0927801e+02 </wgt>
<wgt id='131'> +5.3982451e+02 </wgt>
<wgt id='132'> +5.0326781e+02 </wgt>
<wgt id='133'> +5.0484484e+02 </wgt>
<wgt id='134'> +4.7607847e+02 </wgt>
<wgt id='135'> +5.1745567e+02 </wgt>
<wgt id='136'> +4.8751796e+02 </wgt>
<wgt id='137'> +4.7698506e+02 </wgt>
<wgt id='138'> +4.6310974e+02 </wgt>
<wgt id='139'> +5.1611497e+02 </wgt>
<wgt id='140'> +5.3425844e+02 </wgt>
<wgt id='141'> +5.0538342e+02 </wgt>
<wgt id='142'> +5.0326740e+02 </wgt>
<wgt id='143'> +5.0241249e+02 </wgt>
<wgt id='144'> +5.0194872e+02 </wgt>
<wgt id='145'> +5.0594119e+02 </wgt>
</rwgt>
</event>
<event>
 4      1 +5.0481800e+02 2.76363000e+02 7.54677100e-03 1.09769200e-01
       21 -1    0    0  501  502 +0.0000000000e+00 +0.0000000000e+00 +2.6944095209e+02 2.6944095209e+02 0.0000000000e+00 0.0000e+00 -1.0000e+00
       21 -1    0    0  502  503 -0.0000000000e+00 -0.0000000000e+00 -2.9045170780e+02 2.9045170780e+02 0.0000000000e+00 0.0000e+00 1.0000e+00
        6  1    1    2  501    0 +1.9376656233e+02 -9.4350443866e+01 -5.3930639241e+01 2.8157592366e+02 1.7300000000e+02 0.0000e+00 1.0000e+00
       -6  1    1    2    0  503 -1.9376656233e+02 +9.4350443866e+01 +3.2919883523e+01 2.7831673623e+02 1.7300000000e+02 0.0000e+00 -1.0000e+00
<mgrwt>
<rscale>  2 0.27636296E+03</rscale>
<asrwt>0</asrwt>
<pdfrwt beam="1">  1       21 0.41452454E-01 0.27636296E+03</pdfrwt>
<pdfrwt beam="2">  1       21 0.44684878E-01 0.27636296E+03</pdfrwt>
<totfact> 0.25859197E+04</totfact>
</mgrwt>
<rwgt>
<wgt id='1'> +6.5374356e+02 </wgt>
<wgt id='2'> +5.0629428e+02 </wgt>
<wgt id='3'> +5.0481800e+02 </wgt>
<wgt id='4'> +6.5374355e+02 </wgt>
<wgt id='5'> +5.0260229e+02 </wgt>
<wgt id='6'> +6.0773619e+02 </wgt>
<wgt id='7'> +4.6817428e+02 </wgt>
<wgt id='8'> +4.6681533e+02 </wgt>
<wgt id='9'> +6.0773619e+02 </wgt>
<wgt id='10'> +4.6477578e+02 </wgt>
<wgt id='11'> +5.6198586e+02 </wgt>
<wgt id='12'> +4.3354914e+02 </wgt>
<wgt id='13'> +4.3229925e+02 </wgt>
<wgt id='14'> +5.6198585e+02 </wgt>
<wgt id='15'> +4.3042338e+02 </wgt>
<wgt id='16'> +5.4303416e+02 </wgt>
<wgt id='17'> +4.2934454e+02 </wgt>
<wgt id='18'> +4.2816074e+02 </wgt>
<wgt id='19'> +5.4303416e+02 </wgt>
<wgt id='20'> +4.2638365e+02 </wgt>
<wgt id='21'> +3.9701825e+02 </wgt>
<wgt id='22'> +3.9592883e+02 </wgt>
<wgt id='23'> +5.0481800e+02 </wgt>
<wgt id='24'> +3.9429345e+02 </wgt>
<wgt id='25'> +4.6681534e+02 </wgt>
<wgt id='26'> +3.6765566e+02 </wgt>
<wgt id='27'> +3.6665406e+02 </wgt>
<wgt id='28'> +4.6681533e+02 </wgt>
<wgt id='29'> +3.6515053e+02 </wgt>
<wgt id='30'> +4.6057373e+02 </wgt>
<wgt id='31'> +3.6869160e+02 </wgt>
<wgt id='32'> +3.6772460e+02 </wgt>
<wgt id='33'> +4.6057373e+02 </wgt>
<wgt id='34'> +3.6627270e+02 </wgt>
<wgt id='35'> +4.2816074e+02 </wgt>
<wgt id='36'> +3.4093200e+02 </wgt>
<wgt id='37'> +3.4004232e+02 </wgt>
<wgt id='38'> +4.2816074e+02 </wgt>
<wgt id='39'> +3.3870653e+02 </wgt>
<wgt id='40'> +3.9592883e+02 </wgt>
<wgt id='41'> +3.1571743e+02 </wgt>
<wgt id='42'> +3.1489977e+02 </wgt>
<wgt id='43'> +3.9592883e+02 </wgt>
<wgt id='44'> +3.1367213e+02 </wgt>
<wgt id='45'> +5.0481800e+02 </wgt>
<wgt id='46'> +5.1087548e+02 </wgt>
<wgt id='47'> +5.2659304e+02 </wgt>
<wgt id='48'> +5.1028940e+02 </wgt>
<wgt id='49'> +5.0313010e+02 </wgt>
<wgt id='50'> +6.0566566e+02 </wgt>
<wgt id='51'> +4.9518265e+02 </wgt>
<wgt id='52'> +5.0289460e+02 </wgt>
<wgt id='53'> +5.0641695e+02 </wgt>
<wgt id='54'> +5.0786550e+02 </wgt>
<wgt id='55'> +4.5035147e+02 </wgt>
<wgt id='56'> +4.6376214e+02 </wgt>
<wgt id='57'> +4.9099167e+02 </wgt>
<wgt id='58'> +5.0209162e+02 </wgt>
<wgt id='59'> +5.0338766e+02 </wgt>
<wgt id='60'> +4.8970050e+02 </wgt>
<wgt id='61'> +4.8041624e+02 </wgt>
<wgt id='62'> +4.9939442e+02 </wgt>
<wgt id='63'> +5.0544260e+02 </wgt>
<wgt id='64'> +4.9465843e+02 </wgt>
<wgt id='65'> +5.9425044e+02 </wgt>
<wgt id='66'> +4.9460805e+02 </wgt>
<wgt id='67'> +5.0935830e+02 </wgt>
<wgt id='68'> +5.4795458e+02 </wgt>
<wgt id='69'> +5.0082382e+02 </wgt>
<wgt id='70'> +4.9558081e+02 </wgt>
<wgt id='71'> +5.1376978e+02 </wgt>
<wgt id='72'> +4.7906731e+02 </wgt>
<wgt id='73'> +4.9490900e+02 </wgt>
<wgt id='74'> +5.2652398e+02 </wgt>
<wgt id='75'> +5.1802901e+02 </wgt>
<wgt id='76'> +4.8848661e+02 </wgt>
<wgt id='77'> +4.8992265e+02 </wgt>
<wgt id='78'> +4.9830243e+02 </wgt>
<wgt id='79'> +4.8829596e+02 </wgt>
<wgt id='80'> +4.9805904e+02 </wgt>
<wgt id='81'> +4.9331230e+02 </wgt>
<wgt id='82'> +5.1489581e+02 </wgt>
<wgt id='83'> +5.1871893e+02 </wgt>
<wgt id='84'> +5.5777760e+02 </wgt>
<wgt id='85'> +5.3093233e+02 </wgt>
<wgt id='86'> +5.0572093e+02 </wgt>
<wgt id='87'> +5.0688009e+02 </wgt>
<wgt id='88'> +5.1576540e+02 </wgt>
<wgt id='89'> +5.1882066e+02 </wgt>
<wgt id='90'> +5.1207609e+02 </wgt>
<wgt id='91'> +5.3502284e+02 </wgt>
<wgt id='92'> +4.5340529e+02 </wgt>
<wgt id='93'> +4.9968969e+02 </wgt>
<wgt id='94'> +4.9747985e+02 </wgt>
<wgt id='95'> +4.8133183e+02 </wgt>
<wgt id='96'> +5.5373060e+02 </wgt>
<wgt id='97'> +5.0877422e+02 </wgt>
<wgt id='98'> +4.8338394e+02 </wgt>
<wgt id='99'> +4.8722543e+02 </wgt>
<wgt id='100'> +4.9012978e+02 </wgt>
<wgt id='101'> +5.4239785e+02 </wgt>
<wgt id='102'> +5.0108927e+02 </wgt>
<wgt id='103'> +5.5245394e+02 </wgt>
<wgt id='104'> +5.0785005e+02 </wgt>
<wgt id='105'> +5.1996229e+02 </wgt>
<wgt id='106'> +4.5473519e+02 </wgt>
<wgt id='107'> +4.8842817e+02 </wgt>
<wgt id='108'> +4.4346373e+02 </wgt>
<wgt id='109'> +4.6833206e+02 </wgt>
<wgt id='110'> +5.0315793e+02 </wgt>
<wgt id='111'> +4.8804016e+02 </wgt>
<wgt id='112'> +4.7671708e+02 </wgt>
<wgt id='113'> +4.5922241e+02 </wgt>
<wgt id='114'> +4.9350690e+02 </wgt>
<wgt id='115'> +4.9586636e+02 </wgt>
<wgt id='116'> +5.1379078e+02 </wgt>
<wgt id='117'> +5.0799555e+02 </wgt>
<wgt id='118'> +5.2550789e+02 </wgt>
<wgt id='119'> +4.8237365e+02 </wgt>
<wgt id='120'> +4.9694695e+02 </wgt>
<wgt id='121'> +4.8707963e+02 </wgt>
<wgt id='122'> +4.9694465e+02 </wgt>
<wgt id='123'> +5.1378233e+02 </wgt>
<wgt id='124'> +5.4906408e+02 </wgt>
<wgt id='125'> +5.4960552e+02 </wgt>
<wgt id='126'> +5.2802453e+02 </wgt>
<wgt id='127'> +5.2255827e+02 </wgt>
<wgt id='128'> +4.6426878e+02 </wgt>
<wgt id='129'> +5.7372235e+02 </wgt>
<wgt id='130'> +5.1115683e+02 </wgt>
<wgt id='131'> +5.3955244e+02 </wgt>
<wgt id='132'> +5.0519948e+02 </wgt>
<wgt id='133'> +5.0808650e+02 </wgt>
<wgt id='134'> +4.7649377e+02 </wgt>
<wgt id='135'> +5.1728826e+02 </wgt>
<wgt id='136'> +4.8874909e+02 </wgt>
<wgt id='137'> +4.7892098e+02 </wgt>
<wgt id='138'> +4.6811715e+02 </wgt>
<wgt id='139'> +5.1759330e+02 </wgt>
<wgt id='140'> +5.3243093e+02 </wgt>
<wgt id='141'> +5.0671929e+02 </wgt>
<wgt id='142'> +4.9960603e+02 </wgt>
<wgt id='143'> +5.0359734e+02 </wgt>
<wgt id='144'> +4.9932274e+02 </wgt>
<wgt id='145'> +5.0600090e+02 </wgt>
</rwgt>
</event>
<event>
 4      1 +5.0481800e+02 1.73024200e+02 7.54677100e-03 1.17473000e-01
       21 -1    0    0  501  502 +0.0000000000e+00 +0.0000000000e+00 +1.1077824829e+03 1.1077824829e+03 0.0000000000e+00 0.0000e+00 1.0000e+00
       21 -1    0    0  502  503 -0.0000000000e+00 -0.0000000000e+00 -2.7210357039e+01 2.7210357039e+01 0.0000000000e+00 0.0000e+00 1.0000e+00
        6  1    1    2  501    0 -2.7976012785e+00 -7.3337226715e-01 +5.8717641599e+02 6.1213847118e+02 1.7300000000e+02 0.0000e+00 -1.0000e+00
       -6  1    1    2    0  503 +2.7976012785e+00 +7.3337226715e-01 +4.9339570987e+02 5.2285436875e+02 1.7300000000e+02 0.0000e+00 -1.0000e+00
<mgrwt>
<rscale>  2 0.17302417E+03</rscale>
<asrwt>0</asrwt>
<pdfrwt beam="1">  1       21 0.17042804E+00 0.17302417E+03</pdfrwt>
<pdfrwt beam="2">  1       21 0.41862096E-02 0.17302417E+03</pdfrwt>
<totfact> 0.77769972E+04</totfact>
</mgrwt>
<rwgt>
<wgt id='1'> +6.5969160e+02 </wgt>
<wgt id='2'> +2.6946546e+03 </wgt>
<wgt id='3'> +5.0481800e+02 </wgt>
<wgt id='4'> +6.5969159e+02 </wgt>
<wgt id='5'> +5.0417132e+02 </wgt>
<wgt id='6'> +6.2259290e+02 </wgt>
<wgt id='7'> +3.2636899e+03 </wgt>
<wgt id='8'> +4.6748903e+02 </wgt>
<wgt id='9'> +6.2259290e+02 </wgt>
<wgt id='10'> +4.6686777e+02 </wgt>
<wgt id='11'> +5.7655503e+02 </wgt>
<wgt id='12'> +3.4187733e+03 </wgt>
<wgt id='13'> +4.3242755e+02 </wgt>
<wgt id='14'> +5.7655502e+02 </wgt>
<wgt id='15'> +4.3185398e+02 </wgt>
<wgt id='16'> +5.3489879e+02 </wgt>
<wgt id='17'> +1.7090248e+03 </wgt>
<wgt id='18'> +4.2359366e+02 </wgt>
<wgt id='19'> +5.3489879e+02 </wgt>
<wgt id='20'> +4.2310109e+02 </wgt>
<wgt id='21'> +2.0699228e+03 </wgt>
<wgt id='22'> +3.9227086e+02 </wgt>
<wgt id='23'> +5.0481800e+02 </wgt>
<wgt id='24'> +3.9179591e+02 </wgt>
<wgt id='25'> +4.6748903e+02 </wgt>
<wgt id='26'> +2.1682810e+03 </wgt>
<wgt id='27'> +3.6285071e+02 </wgt>
<wgt id='28'> +4.6748903e+02 </wgt>
<wgt id='29'> +3.6241231e+02 </wgt>
<wgt id='30'> +4.4883451e+02 </wgt>
<wgt id='31'> +1.2014484e+03 </wgt>
<wgt id='32'> +3.6081532e+02 </wgt>
<wgt id='33'> +4.4883450e+02 </wgt>
<wgt id='34'> +3.6041874e+02 </wgt>
<wgt id='35'> +4.2359366e+02 </wgt>
<wgt id='36'> +1.4551605e+03 </wgt>
<wgt id='37'> +3.3413469e+02 </wgt>
<wgt id='38'> +4.2359366e+02 </wgt>
<wgt id='39'> +3.3375142e+02 </wgt>
<wgt id='40'> +3.9227086e+02 </wgt>
<wgt id='41'> +1.5243065e+03 </wgt>
<wgt id='42'> +3.0907473e+02 </wgt>
<wgt id='43'> +3.9227086e+02 </wgt>
<wgt id='44'> +3.0872098e+02 </wgt>
<wgt id='45'> +5.0481800e+02 </wgt>
<wgt id='46'> +5.1910592e+02 </wgt>
<wgt id='47'> +5.1475072e+02 </wgt>
<wgt id='48'> +5.0405064e+02 </wgt>
<wgt id='49'> +4.7616554e+02 </wgt>
<wgt id='50'> +5.8302006e+02 </wgt>
<wgt id='51'> +4.8067974e+02 </wgt>
<wgt id='52'> +4.8566518e+02 </wgt>
<wgt id='53'> +4.9878111e+02 </wgt>
<wgt id='54'> +5.3023613e+02 </wgt>
<wgt id='55'> +5.4618658e+02 </wgt>
<wgt id='56'> +4.7884175e+02 </wgt>
<wgt id='57'> +5.3202658e+02 </wgt>
<wgt id='58'> +4.7075712e+02 </wgt>
<wgt id='59'> +5.4726958e+02 </wgt>
<wgt id='60'> +5.1414924e+02 </wgt>
<wgt id='61'> +4.5334147e+02 </wgt>
<wgt id='62'> +4.7592179e+02 </wgt>
<wgt id='63'> +5.2525368e+02 </wgt>
<wgt id='64'> +5.0499386e+02 </wgt>
<wgt id='65'> +4.8014519e+02 </wgt>
<wgt id='66'> +5.0569750e+02 </wgt>
<wgt id='67'> +5.0646118e+02 </wgt>
<wgt id='68'> +5.8841676e+02 </wgt>
<wgt id='69'> +5.2744890e+02 </wgt>
<wgt id='70'> +5.2594025e+02 </wgt>
<wgt id='71'> +4.8186708e+02 </wgt>
<wgt id='72'> +4.7704403e+02 </wgt>
<wgt id='73'> +4.6809802e+02 </wgt>
<wgt id='74'> +5.6157848e+02 </wgt>
<wgt id='75'> +5.3324016e+02 </wgt>
<wgt id='76'> +5.1554449e+02 </wgt>
<wgt id='77'> +4.8806250e+02 </wgt>
<wgt id='78'> +4.4847789e+02 </wgt>
<wgt id='79'> +5.3011950e+02 </wgt>
<wgt id='80'> +4.6199111e+02 </wgt>
<wgt id='81'> +5.1330420e+02 </wgt>
<wgt id='82'> +4.8847955e+02 </wgt>
<wgt id='83'> +4.9617839e+02 </wgt>
<wgt id='84'> +5.0060916e+02 </wgt>
<wgt id='85'> +4.7199242e+02 </wgt>
<wgt id='86'> +5.2047187e+02 </wgt>
<wgt id='87'> +5.0311738e+02 </wgt>
<wgt id='88'> +4.9013389e+02 </wgt>
<wgt id='89'> +4.5997773e+02 </wgt>
<wgt id='90'> +4.8871356e+02 </wgt>
<wgt id='91'> +4.6177484e+02 </wgt>
<wgt id='92'> +4.7387000e+02 </wgt>
<wgt id='93'> +5.0908069e+02 </wgt>
<wgt id='94'> +4.7157113e+02 </wgt>
<wgt id='95'> +5.2734557e+02 </wgt>
<wgt id='96'> +5.2445776e+02 </wgt>
<wgt id='97'> +4.6957972e+02 </wgt>
<wgt id='98'> +5.2635366e+02 </wgt>
<wgt id='99'> +4.4436972e+02 </wgt>
<wgt id='100'> +4.1326200e+02 </wgt>
<wgt id='101'> +5.7879213e+02 </wgt>
<wgt id='102'> +5.5544596e+02 </wgt>
<wgt id='103'> +4.9988903e+02 </wgt>
<wgt id='104'> +5.2692711e+02 </wgt>
<wgt id='105'> +5.1810768e+02 </wgt>
<wgt id='106'> +4.8548480e+02 </wgt>
<wgt id='107'> +4.8423621e+02 </wgt>
<wgt id='108'> +4.6814233e+02 </wgt>
<wgt id='109'> +4.9741369e+02 </wgt>
<wgt id='110'> +4.7908937e+02 </wgt>
<wgt id='111'> +4.9287785e+02 </wgt>
<wgt id='112'> +5.1412160e+02 </wgt>
<wgt id='113'> +5.1270404e+02 </wgt>
<wgt id='114'> +5.1662014e+02 </wgt>
<wgt id='115'> +4.6183036e+02 </wgt>
<wgt id='116'> +5.4338349e+02 </wgt>
<wgt id='117'> +4.9182674e+02 </wgt>
<wgt id='118'> +5.2413903e+02 </wgt>
<wgt id='119'> +5.3754897e+02 </wgt>
<wgt id='120'> +5.0199716e+02 </wgt>
<wgt id='121'> +5.0400123e+02 </wgt>
<wgt id='122'> +4.9759838e+02 </wgt>
<wgt id='123'> +4.8884892e+02 </wgt>
<wgt id='124'> +5.6497831e+02 </wgt>
<wgt id='125'> +6.0679757e+02 </wgt>
<wgt id='126'> +5.0055403e+02 </wgt>
<wgt id='127'> +4.9374925e+02 </wgt>
<wgt id='128'> +4.7601994e+02 </wgt>
<wgt id='129'> +5.2630697e+02 </wgt>
<wgt id='130'> +4.8174597e+02 </wgt>
<wgt id='131'> +4.8062495e+02 </wgt>
<wgt id='132'> +5.5364698e+02 </wgt>
<wgt id='133'> +5.4259174e+02 </wgt>
<wgt id='134'> +5.2259968e+02 </wgt>
<wgt id='135'> +4.9088731e+02 </wgt>
<wgt id='136'> +5.8131843e+02 </wgt>
<wgt id='137'> +5.1173704e+02 </wgt>
<wgt id='138'> +5.0285660e+02 </wgt>
<wgt id='139'> +5.2116431e+02 </wgt>
<wgt id='140'> +4.9636959e+02 </wgt>
<wgt id='141'> +5.4943583e+02 </wgt>
<wgt id='142'> +3.9494874e+02 </wgt>
<wgt id='143'> +5.2110464e+02 </wgt>
<wgt id='144'> +4.7151885e+02 </wgt>
<wgt id='145'> +4.7398753e+02 </wgt>
</rwgt>
</event>
<event>
 4      1 +5.0481800e+02 2.04979700e+02 7.54677100e-03 1.14560400e-01
       21 -1    0    0  501  502 +0.0000000000e+00 +0.0000000000e+00 +2.4725486526e+02 2.4725486526e+02 0.0000000000e+00 0.0000e+00 1.0000e+00
       21 -1    0    0  502  503 -0.0000000000e+00 -0.0000000000e+00 -1.7128612390e+02 1.7128612390e+02 0.0000000000e+00 0.0000e+00 1.0000e+00
        6  1    1    2  501    0 -1.0236556451e+02 -4.0112002542e+01 +1.9382043974e+01 2.0589401442e+02 1.7300000000e+02 0.0000e+00 1.0000e+00
       -6  1    1    2    0  503 +1.0236556451e+02 +4.0112002542e+01 +5.6586697379e+01 2.1264697474e+02 1.7300000000e+02 0.0000e+00 1.0000e+00
<mgrwt>
<rscale>  2 0.20497971E+03</rscale>
<asrwt>0</asrwt>
<pdfrwt beam="1">  1       21 0.38039210E-01 0.20497971E+03</pdfrwt>
<pdfrwt beam="2">  1       21 0.26351711E-01 0.20497971E+03</pdfrwt>
<totfact> 0.90805307E+04</totfact>
</mgrwt>
<rwgt>
<wgt id='1'> +6.4409760e+02 </wgt>
<wgt id='2'> +5.1267440e+02 </wgt>
<wgt id='3'> +5.0481800e+02 </wgt>
<wgt id='4'> +6.4409760e+02 </wgt>
<wgt id='5'> +5.0413597e+02 </wgt>
<wgt id='6'> +6.1745899e+02 </wgt>
<wgt id='7'> +4.8337254e+02 </wgt>
<wgt id='8'> +4.7587476e+02 </wgt>
<wgt id='9'> +6.1745899e+02 </wgt>
<wgt id='10'> +4.7522786e+02 </wgt>
<wgt id='11'> +5.8205759e+02 </wgt>
<wgt id='12'> +4.5536366e+02 </wgt>
<wgt id='13'> +4.4828957e+02 </wgt>
<wgt id='14'> +5.8205759e+02 </wgt>
<wgt id='15'> +4.4767930e+02 </wgt>
<wgt id='16'> +5.2659702e+02 </wgt>
<wgt id='17'> +4.3181677e+02 </wgt>
<wgt id='18'> +4.2564683e+02 </wgt>
<wgt id='19'> +5.2659702e+02 </wgt>
<wgt id='20'> +4.2510711e+02 </wgt>
<wgt id='21'> +4.0713632e+02 </wgt>
<wgt id='22'> +4.0124279e+02 </wgt>
<wgt id='23'> +5.0481800e+02 </wgt>
<wgt id='24'> +4.0073067e+02 </wgt>
<wgt id='25'> +4.7587476e+02 </wgt>
<wgt id='26'> +3.8354493e+02 </wgt>
<wgt id='27'> +3.7798382e+02 </wgt>
<wgt id='28'> +4.7587476e+02 </wgt>
<wgt id='29'> +3.7750064e+02 </wgt>
<wgt id='30'> +4.4401022e+02 </wgt>
<wgt id='31'> +3.6865544e+02 </wgt>
<wgt id='32'> +3.6368450e+02 </wgt>
<wgt id='33'> +4.4401022e+02 </wgt>
<wgt id='34'> +3.6324926e+02 </wgt>
<wgt id='35'> +4.2564683e+02 </wgt>
<wgt id='36'> +3.4758497e+02 </wgt>
<wgt id='37'> +3.4283301e+02 </wgt>
<wgt id='38'> +4.2564683e+02 </wgt>
<wgt id='39'> +3.4241987e+02 </wgt>
<wgt id='40'> +4.0124279e+02 </wgt>
<wgt id='41'> +3.2744426e+02 </wgt>
<wgt id='42'> +3.2295989e+02 </wgt>
<wgt id='43'> +4.0124279e+02 </wgt>
<wgt id='44'> +3.2257007e+02 </wgt>
<wgt id='45'> +5.0481800e+02 </wgt>
<wgt id='46'> +5.0255253e+02 </wgt>
<wgt id='47'> +5.2172706e+02 </wgt>
<wgt id='48'> +5.0499803e+02 </wgt>
<wgt id='49'> +5.0410550e+02 </wgt>
<wgt id='50'> +5.8277811e+02 </wgt>
<wgt id='51'> +4.9518126e+02 </wgt>
<wgt id='52'> +5.0115605e+02 </wgt>
<wgt id='53'> +5.1302345e+02 </wgt>
<wgt id='54'> +5.0763480e+02 </wgt>
<wgt id='55'> +4.5097854e+02 </wgt>
<wgt id='56'> +4.7262174e+02 </wgt>
<wgt id='57'> +4.9080763e+02 </wgt>
<wgt id='58'> +5.1031239e+02 </wgt>
<wgt id='59'> +4.9411149e+02 </wgt>
<wgt id='60'> +4.8136819e+02 </wgt>
<wgt id='61'> +4.9776674e+02 </wgt>
<wgt id='62'> +4.9794964e+02 </wgt>
<wgt id='63'> +5.0530431e+02 </wgt>
<wgt id='64'> +5.0240378e+02 </wgt>
<wgt id='65'> +5.9655375e+02 </wgt>
<wgt id='66'> +4.9251590e+02 </wgt>
<wgt id='67'> +5.0942639e+02 </wgt>
<wgt id='68'> +5.3748645e+02 </wgt>
<wgt id='69'> +4.8996804e+02 </wgt>
<wgt id='70'> +4.9690466e+02 </wgt>
<wgt id='71'> +5.1444395e+02 </wgt>
<wgt id='72'> +4.9425843e+02 </wgt>
<wgt id='73'> +4.9936594e+02 </wgt>
<wgt id='74'> +5.1706597e+02 </wgt>
<wgt id='75'> +5.1551535e+02 </wgt>
<wgt id='76'> +4.9034917e+02 </wgt>
<wgt id='77'> +4.8474097e+02 </wgt>
<wgt id='78'> +5.0831045e+02 </wgt>
<wgt id='79'> +4.8255935e+02 </wgt>
<wgt id='80'> +5.0165174e+02 </wgt>
<wgt id='81'> +4.9644433e+02 </wgt>
<wgt id='82'> +5.2037865e+02 </wgt>
<wgt id='83'> +5.1445793e+02 </wgt>
<wgt id='84'> +5.5361119e+02 </wgt>
<wgt id='85'> +5.3170496e+02 </wgt>
<wgt id='86'> +5.0021055e+02 </wgt>
<wgt id='87'> +5.0389193e+02 </wgt>
<wgt id='88'> +5.1331637e+02 </wgt>
<wgt id='89'> +5.1559978e+02 </wgt>
<wgt id='90'> +5.0923181e+02 </wgt>
<wgt id='91'> +5.3823182e+02 </wgt>
<wgt id='92'> +4.6830610e+02 </wgt>
<wgt id='93'> +4.9484376e+02 </wgt>
<wgt id='94'> +5.0392448e+02 </wgt>
<wgt id='95'> +4.8465479e+02 </wgt>
<wgt id='96'> +5.4285085e+02 </wgt>
<wgt id='97'> +5.1427163e+02 </wgt>
<wgt id='98'> +4.8086348e+02 </wgt>
<wgt id='99'> +4.9136513e+02 </wgt>
<wgt id='100'> +5.0531744e+02 </wgt>
<wgt id='101'> +5.2476346e+02 </wgt>
<wgt id='102'> +4.8583662e+02 </wgt>
<wgt id='103'> +5.4611551e+02 </wgt>
<wgt id='104'> +5.0291711e+02 </wgt>
<wgt id='105'> +5.2605924e+02 </wgt>
<wgt id='106'> +4.6815404e+02 </wgt>
<wgt id='107'> +5.0275864e+02 </wgt>
<wgt id='108'> +4.5648643e+02 </wgt>
<wgt id='109'> +4.7652268e+02 </wgt>
<wgt id='110'> +5.0645370e+02 </wgt>
<wgt id='111'> +4.9297927e+02 </wgt>
<wgt id='112'> +4.8428332e+02 </wgt>
<wgt id='113'> +4.6532793e+02 </wgt>
<wgt id='114'> +5.0762691e+02 </wgt>
<wgt id='115'> +5.1105215e+02 </wgt>
<wgt id='116'> +5.0076445e+02 </wgt>
<wgt id='117'> +5.1348440e+02 </wgt>
<wgt id='118'> +5.1419259e+02 </wgt>
<wgt id='119'> +4.8616636e+02 </wgt>
<wgt id='120'> +5.0627371e+02 </wgt>
<wgt id='121'> +4.9145833e+02 </wgt>
<wgt id='122'> +4.9866042e+02 </wgt>
<wgt id='123'> +5.1078659e+02 </wgt>
<wgt id='124'> +5.3434381e+02 </wgt>
<wgt id='125'> +5.3589908e+02 </wgt>
<wgt id='126'> +5.2308003e+02 </wgt>
<wgt id='127'> +5.1855620e+02 </wgt>
<wgt id='128'> +4.7168748e+02 </wgt>
<wgt id='129'> +5.6997652e+02 </wgt>
<wgt id='130'> +5.0876019e+02 </wgt>
<wgt id='131'> +5.4106693e+02 </wgt>
<wgt id='132'> +4.9563235e+02 </wgt>
<wgt id='133'> +4.9849145e+02 </wgt>
<wgt id='134'> +4.7388827e+02 </wgt>
<wgt id='135'> +5.1782262e+02 </wgt>
<wgt id='136'> +4.8078532e+02 </wgt>
<wgt id='137'> +4.7464527e+02 </wgt>
<wgt id='138'> +4.5669564e+02 </wgt>
<wgt id='139'> +5.1291100e+02 </wgt>
<wgt id='140'> +5.3842701e+02 </wgt>
<wgt id='141'> +5.0321427e+02 </wgt>
<wgt id='142'> +5.1223621e+02 </wgt>
<wgt id='143'> +4.9840259e+02 </wgt>
<wgt id='144'> +5.0616381e+02 </wgt>
<wgt id='145'> +5.0592658e+02 </wgt>
</rwgt>
</event>
<event>
 4      1 +5.0481800e+02 2.44737600e+02 7.54677100e-03 1.11667600e-01
       21 -1    0    0  503  502 +0.0000000000e+00 +0.0000000000e+00 +6.0131040731e+02 6.0131040731e+02 0.0000000000e+00 0.0000e+00 1.0000e+00
       21 -1    0    0  501  503 -0.0000000000e+00 -0.0000000000e+00 -1.9961645931e+02 1.9961645931e+02 0.0000000000e+00 0.0000e+00 -1.0000e+00
        6  1    1    2  501    0 +1.6729760334e+02 -4.4486008579e+01 -8.2604585276e+01 2.5830216908e+02 1.7300000000e+02 0.0000e+00 -1.0000e+00
       -6  1    1    2    0  502 -1.6729760334e+02 +4.4486008579e+01 +4.8429853328e+02 5.4262469754e+02 1.7300000000e+02 0.0000e+00 1.0000e+00
<mgrwt>
<rscale>  2 0.24473760E+03</rscale>
<asrwt>0</asrwt>
<pdfrwt beam="1">  1       21 0.92509293E-01 0.24473760E+03</pdfrwt>
<pdfrwt beam="2">  1       21 0.30710225E-01 0.24473760E+03</pdfrwt>
<totfact> 0.97029250E+03</totfact>
</mgrwt>
<rwgt>
<wgt id='1'> +6.6857923e+02 </wgt>
<wgt id='2'> +5.3843025e+02 </wgt>
<wgt id='3'> +5.0481800e+02 </wgt>
<wgt id='4'> +6.6857923e+02 </wgt>
<wgt id='5'> +4.4148459e+02 </wgt>
<wgt id='6'> +6.1153372e+02 </wgt>
<wgt id='7'> +4.8872119e+02 </wgt>
<wgt id='8'> +4.5857056e+02 </wgt>
<wgt id='9'> +6.1153372e+02 </wgt>
<wgt id='10'> +4.0160179e+02 </wgt>
<wgt id='11'> +5.5550983e+02 </wgt>
<wgt id='12'> +4.4491532e+02 </wgt>
<wgt id='13'> +4.1776344e+02 </wgt>
<wgt id='14'> +5.5550983e+02 </wgt>
<wgt id='15'> +3.6643186e+02 </wgt>
<wgt id='16'> +5.5190878e+02 </wgt>
<wgt id='17'> +4.5411933e+02 </wgt>
<wgt id='18'> +4.2713035e+02 </wgt>
<wgt id='19'> +5.5190878e+02 </wgt>
<wgt id='20'> +3.7606298e+02 </wgt>
<wgt id='21'> +4.1219404e+02 </wgt>
<wgt id='22'> +3.8800005e+02 </wgt>
<wgt id='23'> +5.0481800e+02 </wgt>
<wgt id='24'> +3.4209024e+02 </wgt>
<wgt id='25'> +4.5857056e+02 </wgt>
<wgt id='26'> +3.7524758e+02 </wgt>
<wgt id='27'> +3.5347283e+02 </wgt>
<wgt id='28'> +4.5857056e+02 </wgt>
<wgt id='29'> +3.1213198e+02 </wgt>
<wgt id='30'> +4.6697422e+02 </wgt>
<wgt id='31'> +3.8811009e+02 </wgt>
<wgt id='32'> +3.6608613e+02 </wgt>
<wgt id='33'> +4.6697422e+02 </wgt>
<wgt id='34'> +3.2417331e+02 </wgt>
<wgt id='35'> +4.2713035e+02 </wgt>
<wgt id='36'> +3.5227892e+02 </wgt>
<wgt id='37'> +3.3254821e+02 </wgt>
<wgt id='38'> +4.2713035e+02 </wgt>
<wgt id='39'> +2.9488817e+02 </wgt>
<wgt id='40'> +3.8800005e+02 </wgt>
<wgt id='41'> +3.2070287e+02 </wgt>
<wgt id='42'> +3.0295552e+02 </wgt>
<wgt id='43'> +3.8800005e+02 </wgt>
<wgt id='44'> +2.6906359e+02 </wgt>
<wgt id='45'> +5.0481800e+02 </wgt>
<wgt id='46'> +5.1921651e+02 </wgt>
<wgt id='47'> +5.2682242e+02 </wgt>
<wgt id='48'> +5.1237792e+02 </wgt>
<wgt id='49'> +4.9703301e+02 </wgt>
<wgt id='50'> +6.2191854e+02 </wgt>
<wgt id='51'> +4.9224158e+02 </wgt>
<wgt id='52'> +5.0320923e+02 </wgt>
<wgt id='53'> +4.9850625e+02 </wgt>
<wgt id='54'> +5.1263483e+02 </wgt>
<wgt id='55'> +4.6764152e+02 </wgt>
<wgt id='56'> +4.5582823e+02 </wgt>
<wgt id='57'> +5.0160779e+02 </wgt>
<wgt id='58'> +4.9012574e+02 </wgt>
<wgt id='59'> +5.2193203e+02 </wgt>
<wgt id='60'> +5.0144400e+02 </wgt>
<wgt id='61'> +4.4456966e+02 </wgt>
<wgt id='62'> +4.9622892e+02 </wgt>
<wgt id='63'> +5.0727706e+02 </wgt>
<wgt id='64'> +4.9094811e+02 </wgt>
<wgt id='65'> +5.7367462e+02 </wgt>
<wgt id='66'> +4.9683909e+02 </wgt>
<wgt id='67'> +5.0823109e+02 </wgt>
<wgt id='68'> +5.6260677e+02 </wgt>
<wgt id='69'> +5.1161567e+02 </wgt>
<wgt id='70'> +4.9730424e+02 </wgt>
<wgt id='71'> +5.0952881e+02 </wgt>
<wgt id='72'> +4.7212986e+02 </wgt>
<wgt id='73'> +4.8626431e+02 </wgt>
<wgt id='74'> +5.3910710e+02 </wgt>
<wgt id='75'> +5.2014869e+02 </wgt>
<wgt id='76'> +4.9375622e+02 </wgt>
<wgt id='77'> +4.9464018e+02 </wgt>
<wgt id='78'> +4.8094331e+02 </wgt>
<wgt id='79'> +4.9869668e+02 </wgt>
<wgt id='80'> +4.8935284e+02 </wgt>
<wgt id='81'> +4.9297037e+02 </wgt>
<wgt id='82'> +5.0017688e+02 </wgt>
<wgt id='83'> +5.1690506e+02 </wgt>
<wgt id='84'> +5.5104778e+02 </wgt>
<wgt id='85'> +5.1873499e+02 </wgt>
<wgt id='86'> +5.1109097e+02 </wgt>
<wgt id='87'> +5.0914776e+02 </wgt>
<wgt id='88'> +5.1215256e+02 </wgt>
<wgt id='89'> +5.1303243e+02 </wgt>
<wgt id='90'> +5.1356948e+02 </wgt>
<wgt id='91'> +5.1975017e+02 </wgt>
<wgt id='92'> +4.4753292e+02 </wgt>
<wgt id='93'> +5.0423672e+02 </wgt>
<wgt id='94'> +4.8778356e+02 </wgt>
<wgt id='95'> +4.9083603e+02 </wgt>
<wgt id='96'> +5.5323237e+02 </wgt>
<wgt id='97'> +4.9811512e+02 </wgt>
<wgt id='98'> +4.9265914e+02 </wgt>
<wgt id='99'> +4.7620195e+02 </wgt>
<wgt id='100'> +4.6472321e+02 </wgt>
<wgt id='101'> +5.6488709e+02 </wgt>
<wgt id='102'> +5.2350241e+02 </wgt>
<wgt id='103'> +5.4960911e+02 </wgt>
<wgt id='104'> +5.1377991e+02 </wgt>
<wgt id='105'> +5.1733509e+02 </wgt>
<wgt id='106'> +4.4999869e+02 </wgt>
<wgt id='107'> +4.7517571e+02 </wgt>
<wgt id='108'> +4.3657437e+02 </wgt>
<wgt id='109'> +4.6807624e+02 </wgt>
<wgt id='110'> +4.9745144e+02 </wgt>
<wgt id='111'> +4.8693044e+02 </wgt>
<wgt id='112'> +4.7456406e+02 </wgt>
<wgt id='113'> +4.6192241e+02 </wgt>
<wgt id='114'> +4.8792123e+02 </wgt>
<wgt id='115'> +4.7760734e+02 </wgt>
<wgt id='116'> +5.2884831e+02 </wgt>
<wgt id='117'> +4.9983978e+02 </wgt>
<wgt id='118'> +5.3513674e+02 </wgt>
<wgt id='119'> +4.8826485e+02 </wgt>
<wgt id='120'> +4.9165601e+02 </wgt>
<wgt id='121'> +4.8945912e+02 </wgt>
<wgt id='122'> +4.9711155e+02 </wgt>
<wgt id='123'> +5.1186698e+02 </wgt>
<wgt id='124'> +5.6593590e+02 </wgt>
<wgt id='125'> +5.7071384e+02 </wgt>
<wgt id='126'> +5.2591983e+02 </wgt>
<wgt id='127'> +5.2109497e+02 </wgt>
<wgt id='128'> +4.5703447e+02 </wgt>
<wgt id='129'> +5.7091962e+02 </wgt>
<wgt id='130'> +5.0601716e+02 </wgt>
<wgt id='131'> +5.2863170e+02 </wgt>
<wgt id='132'> +5.2636005e+02 </wgt>
<wgt id='133'> +5.2189558e+02 </wgt>
<wgt id='134'> +4.8712358e+02 </wgt>
<wgt id='135'> +5.1260232e+02 </wgt>
<wgt id='136'> +5.1582241e+02 </wgt>
<wgt id='137'> +4.8562407e+02 </wgt>
<wgt id='138'> +4.8020052e+02 </wgt>
<wgt id='139'> +5.2212502e+02 </wgt>
<wgt id='140'> +5.2075465e+02 </wgt>
<wgt id='141'> +5.1548805e+02 </wgt>
<wgt id='142'> +4.7266575e+02 </wgt>
<wgt id='143'> +5.1295419e+02 </wgt>
<wgt id='144'> +4.8994437e+02 </wgt>
<wgt id='145'> +5.0139917e+02 </wgt>
</rwgt>
</event>
<event>
 4      1 +5.0481800e+02 1.82292000e+02 7.54677100e-03 1.16560300e-01
       21 -1    0    0  503  502 +0.0000000000e+00 +0.0000000000e+00 +8.4318767702e+02 8.4318767702e+02 0.0000000000e+00 0.0000e+00 1.0000e+00
       21 -1    0    0  501  503 -0.0000000000e+00 -0.0000000000e+00 -5.1739323604e+01 5.1739323604e+01 0.0000000000e+00 0.0000e+00 1.0000e+00
        6  1    1    2  501    0 +1.7442872397e+01 -5.4745875014e+01 +1.7729542592e+02 2.5429123595e+02 1.7300000000e+02 0.0000e+00 -1.0000e+00
       -6  1    1    2    0  502 -1.7442872397e+01 +5.4745875014e+01 +6.1415292749e+02 6.4063576467e+02 1.7300000000e+02 0.0000e+00 -1.0000e+00
<mgrwt>
<rscale>  2 0.18229198E+03</rscale>
<asrwt>0</asrwt>
<pdfrwt beam="1">  1       21 0.12972117E+00 0.18229198E+03</pdfrwt>
<pdfrwt beam="2">  1       21 0.79598966E-02 0.18229198E+03</pdfrwt>
<totfact> 0.52897056E+04</totfact>
</mgrwt>
<rwgt>
<wgt id='1'> +6.5735797e+02 </wgt>
<wgt id='2'> +7.3414050e+02 </wgt>
<wgt id='3'> +5.0481800e+02 </wgt>
<wgt id='4'> +6.5735798e+02 </wgt>
<wgt id='5'> +4.8020379e+02 </wgt>
<wgt id='6'> +6.2103453e+02 </wgt>
<wgt id='7'> +6.9637609e+02 </wgt>
<wgt id='8'> +4.6833896e+02 </wgt>
<wgt id='9'> +6.2103454e+02 </wgt>
<wgt id='10'> +4.4519322e+02 </wgt>
<wgt id='11'> +5.7615748e+02 </wgt>
<wgt id='12'> +6.4991868e+02 </wgt>
<wgt id='13'> +4.3430991e+02 </wgt>
<wgt id='14'> +5.7615749e+02 </wgt>
<wgt id='15'> +4.1289731e+02 </wgt>
<wgt id='16'> +5.3434410e+02 </wgt>
<wgt id='17'> +5.9045307e+02 </wgt>
<wgt id='18'> +4.2431847e+02 </wgt>
<wgt id='19'> +5.3434410e+02 </wgt>
<wgt id='20'> +4.0504879e+02 </wgt>
<wgt id='21'> +5.6007999e+02 </wgt>
<wgt id='22'> +3.9365647e+02 </wgt>
<wgt id='23'> +5.0481800e+02 </wgt>
<wgt id='24'> +3.7551761e+02 </wgt>
<wgt id='25'> +4.6833896e+02 </wgt>
<wgt id='26'> +5.2271531e+02 </wgt>
<wgt id='27'> +3.6505377e+02 </wgt>
<wgt id='28'> +4.6833896e+02 </wgt>
<wgt id='29'> +3.4827621e+02 </wgt>
<wgt id='30'> +4.4913626e+02 </wgt>
<wgt id='31'> +4.9044135e+02 </wgt>
<wgt id='32'> +3.6177998e+02 </wgt>
<wgt id='33'> +4.4913626e+02 </wgt>
<wgt id='34'> +3.4620155e+02 </wgt>
<wgt id='35'> +4.2431847e+02 </wgt>
<wgt id='36'> +4.6521290e+02 </wgt>
<wgt id='37'> +3.3563712e+02 </wgt>
<wgt id='38'> +4.2431847e+02 </wgt>
<wgt id='39'> +3.2096078e+02 </wgt>
<wgt id='40'> +3.9365647e+02 </wgt>
<wgt id='41'> +4.3417711e+02 </wgt>
<wgt id='42'> +3.1125005e+02 </wgt>
<wgt id='43'> +3.9365647e+02 </wgt>
<wgt id='44'> +2.9767713e+02 </wgt>
<wgt id='45'> +5.0481800e+02 </wgt>
<wgt id='46'> +5.1741933e+02 </wgt>
<wgt id='47'> +5.1622771e+02 </wgt>
<wgt id='48'> +5.0606174e+02 </wgt>
<wgt id='49'> +4.8837055e+02 </wgt>
<wgt id='50'> +5.9264165e+02 </wgt>
<wgt id='51'> +4.8762164e+02 </wgt>
<wgt id='52'> +4.9862442e+02 </wgt>
<wgt id='53'> +4.9706614e+02 </wgt>
<wgt id='54'> +5.2030619e+02 </wgt>
<wgt id='55'> +5.0612222e+02 </wgt>
<wgt id='56'> +4.6710287e+02 </wgt>
<wgt id='57'> +5.1884712e+02 </wgt>
<wgt id='58'> +4.8515882e+02 </wgt>
<wgt id='59'> +5.3529232e+02 </wgt>
<wgt id='60'> +5.0968322e+02 </wgt>
<wgt id='61'> +4.4010164e+02 </wgt>
<wgt id='62'> +4.8786461e+02 </wgt>
<wgt id='63'> +5.1354136e+02 </wgt>
<wgt id='64'> +4.9966337e+02 </wgt>
<wgt id='65'> +5.2680259e+02 </wgt>
<wgt id='66'> +4.9945991e+02 </wgt>
<wgt id='67'> +5.0684051e+02 </wgt>
<wgt id='68'> +5.6716624e+02 </wgt>
<wgt id='69'> +5.1142357e+02 </wgt>
<wgt id='70'> +5.0743306e+02 </wgt>
<wgt id='71'> +4.9973908e+02 </wgt>
<wgt id='72'> +4.8555506e+02 </wgt>
<wgt id='73'> +4.8042438e+02 </wgt>
<wgt id='74'> +5.4318807e+02 </wgt>
<wgt id='75'> +5.2046339e+02 </wgt>
<wgt id='76'> +5.0675579e+02 </wgt>
<wgt id='77'> +4.9375318e+02 </wgt>
<wgt id='78'> +4.6864022e+02 </wgt>
<wgt id='79'> +5.1077004e+02 </wgt>
<wgt id='80'> +4.8028538e+02 </wgt>
<wgt id='81'> +5.0170417e+02 </wgt>
<wgt id='82'> +4.8925631e+02 </wgt>
<wgt id='83'> +5.0371812e+02 </wgt>
<wgt id='84'> +5.2435908e+02 </wgt>
<wgt id='85'> +4.9624053e+02 </wgt>
<wgt id='86'> +5.1139503e+02 </wgt>
<wgt id='87'> +5.0679804e+02 </wgt>
<wgt id='88'> +4.9909920e+02 </wgt>
<wgt id='89'> +4.9240074e+02 </wgt>
<wgt id='90'> +5.0633777e+02 </wgt>
<wgt id='91'> +4.9459826e+02 </wgt>
<wgt id='92'> +4.6847743e+02 </wgt>
<wgt id='93'> +5.0465388e+02 </wgt>
<wgt id='94'> +4.8303909e+02 </wgt>
<wgt id='95'> +5.1289080e+02 </wgt>
<wgt id='96'> +5.3097370e+02 </wgt>
<wgt id='97'> +4.8749949e+02 </wgt>
<wgt id='98'> +5.0630740e+02 </wgt>
<wgt id='99'> +4.6534672e+02 </wgt>
<wgt id='100'> +4.4793680e+02 </wgt>
<wgt id='101'> +5.6620473e+02 </wgt>
<wgt id='102'> +5.3427217e+02 </wgt>
<wgt id='103'> +5.2593655e+02 </wgt>
<wgt id='104'> +5.1540523e+02 </wgt>
<wgt id='105'> +5.2080180e+02 </wgt>
<wgt id='106'> +4.7149886e+02 </wgt>
<wgt id='107'> +4.8133440e+02 </wgt>
<wgt id='108'> +4.5552907e+02 </wgt>
<wgt id='109'> +4.8585236e+02 </wgt>
<wgt id='110'> +4.9286507e+02 </wgt>
<wgt id='111'> +4.9323607e+02 </wgt>
<wgt id='112'> +4.9251270e+02 </wgt>
<wgt id='113'> +4.8511485e+02 </wgt>
<wgt id='114'> +5.0385155e+02 </wgt>
<wgt id='115'> +4.7075002e+02 </wgt>
<wgt id='116'> +5.3010276e+02 </wgt>
<wgt id='117'> +4.9497285e+02 </wgt>
<wgt id='118'> +5.2761118e+02 </wgt>
<wgt id='119'> +5.1075618e+02 </wgt>
<wgt id='120'> +4.9736588e+02 </wgt>
<wgt id='121'> +5.0170152e+02 </wgt>
<wgt id='122'> +4.9951458e+02 </wgt>
<wgt id='123'> +5.0047526e+02 </wgt>
<wgt id='124'> +5.6148031e+02 </wgt>
<wgt id='125'> +5.7913421e+02 </wgt>
<wgt id='126'> +5.1125617e+02 </wgt>
<wgt id='127'> +5.0824499e+02 </wgt>
<wgt id='128'> +4.6436482e+02 </wgt>
<wgt id='129'> +5.4968243e+02 </wgt>
<wgt id='130'> +4.9033943e+02 </wgt>
<wgt id='131'> +5.0734937e+02 </wgt>
<wgt id='132'> +5.4259552e+02 </wgt>
<wgt id='133'> +5.2838508e+02 </wgt>
<wgt id='134'> +5.0464548e+02 </wgt>
<wgt id='135'> +5.0316516e+02 </wgt>
<wgt id='136'> +5.4805624e+02 </wgt>
<wgt id='137'> +4.9340172e+02 </wgt>
<wgt id='138'> +4.8470948e+02 </wgt>
<wgt id='139'> +5.2037866e+02 </wgt>
<wgt id='140'> +5.0902783e+02 </wgt>
<wgt id='141'> +5.2610017e+02 </wgt>
<wgt id='142'> +4.4516009e+02 </wgt>
<wgt id='143'> +5.1914972e+02 </wgt>
<wgt id='144'> +4.8611744e+02 </wgt>
<wgt id='145'> +4.9023646e+02 </wgt>
</rwgt>
</event>
<event>
 4      1 +5.0481800e+02 2.11936200e+02 7.54677100e-03 1.14004200e-01
       21 -1    0    0  501  502 +0.0000000000e+00 +0.0000000000e+00 +1.4763427098e+02 1.4763427098e+02 0.0000000000e+00 0.0000e+00 1.0000e+00
       21 -1    0    0  502  503 -0.0000000000e+00 -0.0000000000e+00 -5.6190806426e+02 5.6190806426e+02 0.0000000000e+00 0.0000e+00 1.0000e+00
        6  1    1    2  501    0 -6.9062868217e+01 -1.0108551277e+02 +3.3101228015e+01 2.1450559889e+02 1.7300000000e+02 0.0000e+00 1.0000e+00
       -6  1    1    2    0  503 +6.9062868217e+01 +1.0108551277e+02 -4.4737502129e+02 4.9503673635e+02 1.7300000000e+02 0.0000e+00 1.0000e+00
<mgrwt>
<rscale>  2 0.21193622E+03</rscale>
<asrwt>0</asrwt>
<pdfrwt beam="1">  1       21 0.22712965E-01 0.21193622E+03</pdfrwt>
<pdfrwt beam="2">  1       21 0.86447393E-01 0.21193622E+03</pdfrwt>
<totfact> 0.20711156E+04</totfact>
</mgrwt>
<rwgt>
<wgt id='1'> +6.6223801e+02 </wgt>
<wgt id='2'> +5.5067960e+02 </wgt>
<wgt id='3'> +5.0481800e+02 </wgt>
<wgt id='4'> +6.6223801e+02 </wgt>
<wgt id='5'> +4.5015354e+02 </wgt>
<wgt id='6'> +6.1629862e+02 </wgt>
<wgt id='7'> +5.0654917e+02 </wgt>
<wgt id='8'> +4.6383279e+02 </wgt>
<wgt id='9'> +6.1629862e+02 </wgt>
<wgt id='10'> +4.1392473e+02 </wgt>
<wgt id='11'> +5.6626251e+02 </wgt>
<wgt id='12'> +4.6595794e+02 </wgt>
<wgt id='13'> +4.2691750e+02 </wgt>
<wgt id='14'> +5.6626251e+02 </wgt>
<wgt id='15'> +3.8131695e+02 </wgt>
<wgt id='16'> +5.4244753e+02 </wgt>
<wgt id='17'> +4.6167574e+02 </wgt>
<wgt id='18'> +4.2593229e+02 </wgt>
<wgt id='19'> +5.4244754e+02 </wgt>
<wgt id='20'> +3.8210642e+02 </wgt>
<wgt id='21'> +4.2467791e+02 </wgt>
<wgt id='22'> +3.9135166e+02 </wgt>
<wgt id='23'> +5.0481800e+02 </wgt>
<wgt id='24'> +3.5135411e+02 </wgt>
<wgt id='25'> +4.6383278e+02 </wgt>
<wgt id='26'> +3.9064726e+02 </wgt>
<wgt id='27'> +3.6020496e+02 </wgt>
<wgt id='28'> +4.6383279e+02 </wgt>
<wgt id='29'> +3.2367547e+02 </wgt>
<wgt id='30'> +4.5768162e+02 </wgt>
<wgt id='31'> +3.9307432e+02 </wgt>
<wgt id='32'> +3.6414539e+02 </wgt>
<wgt id='33'> +4.5768162e+02 </wgt>
<wgt id='34'> +3.2839677e+02 </wgt>
<wgt id='35'> +4.2593229e+02 </wgt>
<wgt id='36'> +3.6157408e+02 </wgt>
<wgt id='37'> +3.3458112e+02 </wgt>
<wgt id='38'> +4.2593229e+02 </wgt>
<wgt id='39'> +3.0196706e+02 </wgt>
<wgt id='40'> +3.9135165e+02 </wgt>
<wgt id='41'> +3.3260012e+02 </wgt>
<wgt id='42'> +3.0795265e+02 </wgt>
<wgt id='43'> +3.9135166e+02 </wgt>
<wgt id='44'> +2.7817898e+02 </wgt>
<wgt id='45'> +5.0481800e+02 </wgt>
<wgt id='46'> +5.1504128e+02 </wgt>
<wgt id='47'> +5.2444282e+02 </wgt>
<wgt id='48'> +5.1033265e+02 </wgt>
<wgt id='49'> +4.9871291e+02 </wgt>
<wgt id='50'> +6.0980565e+02 </wgt>
<wgt id='51'> +4.9301205e+02 </wgt>
<wgt id='52'> +5.0345929e+02 </wgt>
<wgt id='53'> +5.0128761e+02 </wgt>
<wgt id='54'> +5.1139305e+02 </wgt>
<wgt id='55'> +4.6562416e+02 </wgt>
<wgt id='56'> +4.5969235e+02 </wgt>
<wgt id='57'> +5.0038301e+02 </wgt>
<wgt id='58'> +4.9555916e+02 </wgt>
<wgt id='59'> +5.1656616e+02 </wgt>
<wgt id='60'> +4.9792904e+02 </wgt>
<wgt id='61'> +4.5246115e+02 </wgt>
<wgt id='62'> +4.9661720e+02 </wgt>
<wgt id='63'> +5.0647331e+02 </wgt>
<wgt id='64'> +4.9382971e+02 </wgt>
<wgt id='65'> +5.7688609e+02 </wgt>
<wgt id='66'> +4.9546631e+02 </wgt>
<wgt id='67'> +5.0840664e+02 </wgt>
<wgt id='68'> +5.5620657e+02 </wgt>
<wgt id='69'> +5.0507610e+02 </wgt>
<wgt id='70'> +4.9698316e+02 </wgt>
<wgt id='71'> +5.1109163e+02 </wgt>
<wgt id='72'> +4.7985352e+02 </wgt>
<wgt id='73'> +4.8989205e+02 </wgt>
<wgt id='74'> +5.3319093e+02 </wgt>
<wgt id='75'> +5.1823793e+02 </wgt>
<wgt id='76'> +4.9395604e+02 </wgt>
<wgt id='77'> +4.9288598e+02 </wgt>
<wgt id='78'> +4.8715903e+02 </wgt>
<wgt id='79'> +4.9504731e+02 </wgt>
<wgt id='80'> +4.9229452e+02 </wgt>
<wgt id='81'> +4.9391538e+02 </wgt>
<wgt id='82'> +5.0364360e+02 </wgt>
<wgt id='83'> +5.1523611e+02 </wgt>
<wgt id='84'> +5.5020382e+02 </wgt>
<wgt id='85'> +5.2093158e+02 </wgt>
<wgt id='86'> +5.0777868e+02 </wgt>
<wgt id='87'> +5.0805070e+02 </wgt>
<wgt id='88'> +5.1115420e+02 </wgt>
<wgt id='89'> +5.1409076e+02 </wgt>
<wgt id='90'> +5.1356529e+02 </wgt>
<wgt id='91'> +5.2362731e+02 </wgt>
<wgt id='92'> +4.5463547e+02 </wgt>
<wgt id='93'> +5.0182775e+02 </wgt>
<wgt id='94'> +4.9212545e+02 </wgt>
<wgt id='95'> +4.9106419e+02 </wgt>
<wgt id='96'> +5.4853026e+02 </wgt>
<wgt id='97'> +5.0203186e+02 </wgt>
<wgt id='98'> +4.8991697e+02 </wgt>
<wgt id='99'> +4.8026962e+02 </wgt>
<wgt id='100'> +4.7482188e+02 </wgt>
<wgt id='101'> +5.5482690e+02 </wgt>
<wgt id='102'> +5.1428597e+02 </wgt>
<wgt id='103'> +5.4841440e+02 </wgt>
<wgt id='104'> +5.1021048e+02 </wgt>
<wgt id='105'> +5.2016206e+02 </wgt>
<wgt id='106'> +4.5574087e+02 </wgt>
<wgt id='107'> +4.8194752e+02 </wgt>
<wgt id='108'> +4.4195457e+02 </wgt>
<wgt id='109'> +4.7105771e+02 </wgt>
<wgt id='110'> +5.0025007e+02 </wgt>
<wgt id='111'> +4.8906260e+02 </wgt>
<wgt id='112'> +4.7648600e+02 </wgt>
<wgt id='113'> +4.6337007e+02 </wgt>
<wgt id='114'> +4.9294917e+02 </wgt>
<wgt id='115'> +4.8422097e+02 </wgt>
<wgt id='116'> +5.2128384e+02 </wgt>
<wgt id='117'> +5.0241085e+02 </wgt>
<wgt id='118'> +5.2973272e+02 </wgt>
<wgt id='119'> +4.8835312e+02 </wgt>
<wgt id='120'> +4.9413682e+02 </wgt>
<wgt id='121'> +4.9117953e+02 </wgt>
<wgt id='122'> +4.9818363e+02 </wgt>
<wgt id='123'> +5.1093870e+02 </wgt>
<wgt id='124'> +5.5789827e+02 </wgt>
<wgt id='125'> +5.6155867e+02 </wgt>
<wgt id='126'> +5.2432461e+02 </wgt>
<wgt id='127'> +5.2028882e+02 </wgt>
<wgt id='128'> +4.5968857e+02 </wgt>
<wgt id='129'> +5.7041444e+02 </wgt>
<wgt id='130'> +5.0456468e+02 </wgt>
<wgt id='131'> +5.3108082e+02 </wgt>
<wgt id='132'> +5.2101013e+02 </wgt>
<wgt id='133'> +5.1615808e+02 </wgt>
<wgt id='134'> +4.8492642e+02 </wgt>
<wgt id='135'> +5.1381284e+02 </wgt>
<wgt id='136'> +5.0934499e+02 </wgt>
<wgt id='137'> +4.8242513e+02 </wgt>
<wgt id='138'> +4.7322668e+02 </wgt>
<wgt id='139'> +5.1992667e+02 </wgt>
<wgt id='140'> +5.2440620e+02 </wgt>
<wgt id='141'> +5.1181110e+02 </wgt>
<wgt id='142'> +4.8089739e+02 </wgt>
<wgt id='143'> +5.1057246e+02 </wgt>
<wgt id='144'> +4.9461541e+02 </wgt>
<wgt id='145'> +5.0289781e+02 </wgt>
</rwgt>
</event>
<event>
 4      1 +5.0481800e+02 2.25863300e+02 7.54677100e-03 1.12958600e-01
       21 -1    0    0  501  502 +0.0000000000e+00 +0.0000000000e+00 +2.1531185088e+02 2.1531185088e+02 0.0000000000e+00 0.0000e+00 -1.0000e+00
       21 -1    0    0  502  503 -0.0000000000e+00 -0.0000000000e+00 -2.8984795392e+02 2.8984795392e+02 0.0000000000e+00 0.0000e+00 -1.0000e+00
        6  1    1    2  501    0 +1.3895208536e+02 -4.2160911108e+01 +7.0653406981e+01 2.3665613951e+02 1.7300000000e+02 0.0000e+00 -1.0000e+00
       -6  1    1    2    0  503 -1.3895208536e+02 +4.2160911108e+01 -1.4518951003e+02 2.6850366529e+02 1.7300000000e+02 0.0000e+00 -1.0000e+00
<mgrwt>
<rscale>  2 0.22586329E+03</rscale>
<asrwt>0</asrwt>
<pdfrwt beam="1">  1       21 0.33124900E-01 0.22586329E+03</pdfrwt>
<pdfrwt beam="2">  1       21 0.44591993E-01 0.22586329E+03</pdfrwt>
<totfact> 0.41684025E+04</totfact>
</mgrwt>
<rwgt>
<wgt id='1'> +6.5165745e+02 </wgt>
<wgt id='2'> +5.2606297e+02 </wgt>
<wgt id='3'> +5.0481800e+02 </wgt>
<wgt id='4'> +6.5165746e+02 </wgt>
<wgt id='5'> +4.8705798e+02 </wgt>
<wgt id='6'> +6.1411355e+02 </wgt>
<wgt id='7'> +4.8976955e+02 </wgt>
<wgt id='8'> +4.7005272e+02 </wgt>
<wgt id='9'> +6.1411356e+02 </wgt>
<wgt id='10'> +4.5353957e+02 </wgt>
<wgt id='11'> +5.7182142e+02 </wgt>
<wgt id='12'> +4.5623598e+02 </wgt>
<wgt id='13'> +4.3793122e+02 </wgt>
<wgt id='14'> +5.7182143e+02 </wgt>
<wgt id='15'> +4.2260481e+02 </wgt>
<wgt id='16'> +5.3568010e+02 </wgt>
<wgt id='17'> +4.4338602e+02 </wgt>
<wgt id='18'> +4.2644218e+02 </wgt>
<wgt id='19'> +5.3568011e+02 </wgt>
<wgt id='20'> +4.1227256e+02 </wgt>
<wgt id='21'> +4.1279653e+02 </wgt>
<wgt id='22'> +3.9707441e+02 </wgt>
<wgt id='23'> +5.0481800e+02 </wgt>
<wgt id='24'> +3.8390075e+02 </wgt>
<wgt id='25'> +4.7005272e+02 </wgt>
<wgt id='26'> +3.8453316e+02 </wgt>
<wgt id='27'> +3.6993994e+02 </wgt>
<wgt id='28'> +4.7005272e+02 </wgt>
<wgt id='29'> +3.5771587e+02 </wgt>
<wgt id='30'> +4.5251277e+02 </wgt>
<wgt id='31'> +3.7871896e+02 </wgt>
<wgt id='32'> +3.6498804e+02 </wgt>
<wgt id='33'> +4.5251277e+02 </wgt>
<wgt id='34'> +3.5347692e+02 </wgt>
<wgt id='35'> +4.2644218e+02 </wgt>
<wgt id='36'> +3.5259090e+02 </wgt>
<wgt id='37'> +3.3985243e+02 </wgt>
<wgt id='38'> +4.2644218e+02 </wgt>
<wgt id='39'> +3.2915131e+02 </wgt>
<wgt id='40'> +3.9707440e+02 </wgt>
<wgt id='41'> +3.2844968e+02 </wgt>
<wgt id='42'> +3.1662828e+02 </wgt>
<wgt id='43'> +3.9707441e+02 </wgt>
<wgt id='44'> +3.0670075e+02 </wgt>
<wgt id='45'> +5.0481800e+02 </wgt>
<wgt id='46'> +5.0731260e+02 </wgt>
<wgt id='47'> +5.2482054e+02 </wgt>
<wgt id='48'> +5.0812358e+02 </wgt>
<wgt id='49'> +5.0376000e+02 </wgt>
<wgt id='50'> +5.9717254e+02 </wgt>
<wgt id='51'> +4.9516833e+02 </wgt>
<wgt id='52'> +5.0228125e+02 </wgt>
<wgt id='53'> +5.0932818e+02 </wgt>
<wgt id='54'> +5.0767858e+02 </wgt>
<wgt id='55'> +4.4931575e+02 </wgt>
<wgt id='56'> +4.6700242e+02 </wgt>
<wgt id='57'> +4.9042190e+02 </wgt>
<wgt id='58'> +5.0577676e+02 </wgt>
<wgt id='59'> +4.9902748e+02 </wgt>
<wgt id='60'> +4.8575164e+02 </wgt>
<wgt id='61'> +4.8813337e+02 </wgt>
<wgt id='62'> +4.9887655e+02 </wgt>
<wgt id='63'> +5.0530688e+02 </wgt>
<wgt id='64'> +4.9784545e+02 </wgt>
<wgt id='65'> +5.9706474e+02 </wgt>
<wgt id='66'> +4.9343577e+02 </wgt>
<wgt id='67'> +5.0941851e+02 </wgt>
<wgt id='68'> +5.4363717e+02 </wgt>
<wgt id='69'> +4.9594379e+02 </wgt>
<wgt id='70'> +4.9583117e+02 </wgt>
<wgt id='71'> +5.1424312e+02 </wgt>
<wgt id='72'> +4.8510662e+02 </wgt>
<wgt id='73'> +4.9691792e+02 </wgt>
<wgt id='74'> +5.2253452e+02 </wgt>
<wgt id='75'> +5.1705365e+02 </wgt>
<wgt id='76'> +4.8881750e+02 </wgt>
<wgt id='77'> +4.8752311e+02 </wgt>
<wgt id='78'> +5.0285089e+02 </wgt>
<wgt id='79'> +4.8534383e+02 </wgt>
<wgt id='80'> +4.9967250e+02 </wgt>
<wgt id='81'> +4.9436014e+02 </wgt>
<wgt id='82'> +5.1768576e+02 </wgt>
<wgt id='83'> +5.1724063e+02 </wgt>
<wgt id='84'> +5.5695910e+02 </wgt>
<wgt id='85'> +5.3210961e+02 </wgt>
<wgt id='86'> +5.0329652e+02 </wgt>
<wgt id='87'> +5.0566944e+02 </wgt>
<wgt id='88'> +5.1499019e+02 </wgt>
<wgt id='89'> +5.1806196e+02 </wgt>
<wgt id='90'> +5.1101661e+02 </wgt>
<wgt id='91'> +5.3715471e+02 </wgt>
<wgt id='92'> +4.5882578e+02 </wgt>
<wgt id='93'> +4.9752908e+02 </wgt>
<wgt id='94'> +5.0029755e+02 </wgt>
<wgt id='95'> +4.8210497e+02 </wgt>
<wgt id='96'> +5.4996294e+02 </wgt>
<wgt id='97'> +5.1139899e+02 </wgt>
<wgt id='98'> +4.8170017e+02 </wgt>
<wgt id='99'> +4.8914892e+02 </wgt>
<wgt id='100'> +4.9687677e+02 </wgt>
<wgt id='101'> +5.3496858e+02 </wgt>
<wgt id='102'> +4.9407663e+02 </wgt>
<wgt id='103'> +5.5074600e+02 </wgt>
<wgt id='104'> +5.0562082e+02 </wgt>
<wgt id='105'> +5.2268873e+02 </wgt>
<wgt id='106'> +4.5959507e+02 </wgt>
<wgt id='107'> +4.9438897e+02 </wgt>
<wgt id='108'> +4.4806360e+02 </wgt>
<wgt id='109'> +4.7121908e+02 </wgt>
<wgt id='110'> +5.0473148e+02 </wgt>
<wgt id='111'> +4.8986266e+02 </wgt>
<wgt id='112'> +4.7945412e+02 </wgt>
<wgt id='113'> +4.6097331e+02 </wgt>
<wgt id='114'> +4.9929558e+02 </wgt>
<wgt id='115'> +5.0243770e+02 </wgt>
<wgt id='116'> +5.0812083e+02 </wgt>
<wgt id='117'> +5.1054210e+02 </wgt>
<wgt id='118'> +5.2090788e+02 </wgt>
<wgt id='119'> +4.8342015e+02 </wgt>
<wgt id='120'> +5.0089964e+02 </wgt>
<wgt id='121'> +4.8864842e+02 </wgt>
<wgt id='122'> +4.9755016e+02 </wgt>
<wgt id='123'> +5.1275718e+02 </wgt>
<wgt id='124'> +5.4313303e+02 </wgt>
<wgt id='125'> +5.4388514e+02 </wgt>
<wgt id='126'> +5.2638527e+02 </wgt>
<wgt id='127'> +5.2128498e+02 </wgt>
<wgt id='128'> +4.6691366e+02 </wgt>
<wgt id='129'> +5.7325795e+02 </wgt>
<wgt id='130'> +5.1041955e+02 </wgt>
<wgt id='131'> +5.4103933e+02 </wgt>
<wgt id='132'> +5.0064536e+02 </wgt>
<wgt id='133'> +5.0379383e+02 </wgt>
<wgt id='134'> +4.7464037e+02 </wgt>
<wgt id='135'> +5.1790472e+02 </wgt>
<wgt id='136'> +4.8448557e+02 </wgt>
<wgt id='137'> +4.7654089e+02 </wgt>
<wgt id='138'> +4.6251625e+02 </wgt>
<wgt id='139'> +5.1579173e+02 </wgt>
<wgt id='140'> +5.3563202e+02 </wgt>
<wgt id='141'> +5.0496565e+02 </wgt>
<wgt id='142'> +5.0556819e+02 </wgt>
<wgt id='143'> +5.0111143e+02 </wgt>
<wgt id='144'> +5.0230962e+02 </wgt>
<wgt id='145'> +5.0610108e+02 </wgt>
</rwgt>
</event>
<event>
 4      1 +5.0481800e+02 1.94425700e+02 7.54677100e-03 1.15452900e-01
       21 -1    0    0  501  502 +0.0000000000e+00 +0.0000000000e+00 +4.8229667332e+02 4.8229667332e+02 0.0000000000e+00 0.0000e+00 -1.0000e+00
       21 -1    0    0  502  503 -0.0000000000e+00 -0.0000000000e+00 -1.1668220509e+02 1.1668220509e+02 0.0000000000e+00 0.0000e+00 1.0000e+00
        6  1    1    2  501    0 +1.5126617747e+01 +8.7427275766e+01 +1.1212614516e+01 1.9474872487e+02 1.7300000000e+02 0.0000e+00 1.0000e+00
       -6  1    1    2    0  503 -1.5126617747e+01 -8.7427275766e+01 +3.5440185372e+02 4.0423015354e+02 1.7300000000e+02 0.0000e+00 -1.0000e+00
<mgrwt>
<rscale>  2 0.19442568E+03</rscale>
<asrwt>0</asrwt>
<pdfrwt beam="1">  1       21 0.74199487E-01 0.19442568E+03</pdfrwt>
<pdfrwt beam="2">  1       21 0.17951109E-01 0.19442568E+03</pdfrwt>
<totfact> 0.45911053E+04</totfact>
</mgrwt>
<rwgt>
<wgt id='1'> +6.5370750e+02 </wgt>
<wgt id='2'> +5.6100891e+02 </wgt>
<wgt id='3'> +5.0481800e+02 </wgt>
<wgt id='4'> +6.5370751e+02 </wgt>
<wgt id='5'> +4.7012011e+02 </wgt>
<wgt id='6'> +6.1919420e+02 </wgt>
<wgt id='7'> +5.2504603e+02 </wgt>
<wgt id='8'> +4.7018938e+02 </wgt>
<wgt id='9'> +6.1919421e+02 </wgt>
<wgt id='10'> +4.3786674e+02 </wgt>
<wgt id='11'> +5.7671979e+02 </wgt>
<wgt id='12'> +4.8904369e+02 </wgt>
<wgt id='13'> +4.3803108e+02 </wgt>
<wgt id='14'> +5.7671980e+02 </wgt>
<wgt id='15'> +4.0800300e+02 </wgt>
<wgt id='16'> +5.3295608e+02 </wgt>
<wgt id='17'> +4.6727307e+02 </wgt>
<wgt id='18'> +4.2511391e+02 </wgt>
<wgt id='19'> +5.3295608e+02 </wgt>
<wgt id='20'> +3.9752144e+02 </wgt>
<wgt id='21'> +4.3731903e+02 </wgt>
<wgt id='22'> +3.9595269e+02 </wgt>
<wgt id='23'> +5.0481800e+02 </wgt>
<wgt id='24'> +3.7024882e+02 </wgt>
<wgt id='25'> +4.7018937e+02 </wgt>
<wgt id='26'> +4.0733211e+02 </wgt>
<wgt id='27'> +3.6887177e+02 </wgt>
<wgt id='28'> +4.7018938e+02 </wgt>
<wgt id='29'> +3.4499682e+02 </wgt>
<wgt id='30'> +4.4880936e+02 </wgt>
<wgt id='31'> +3.9672721e+02 </wgt>
<wgt id='32'> +3.6288273e+02 </wgt>
<wgt id='33'> +4.4880936e+02 </wgt>
<wgt id='34'> +3.4052513e+02 </wgt>
<wgt id='35'> +4.2511391e+02 </wgt>
<wgt id='36'> +3.7129543e+02 </wgt>
<wgt id='37'> +3.3799033e+02 </wgt>
<wgt id='38'> +4.2511391e+02 </wgt>
<wgt id='39'> +3.1716284e+02 </wgt>
<wgt id='40'> +3.9595268e+02 </wgt>
<wgt id='41'> +3.4583575e+02 </wgt>
<wgt id='42'> +3.1487370e+02 </wgt>
<wgt id='43'> +3.9595269e+02 </wgt>
<wgt id='44'> +2.9553145e+02 </wgt>
<wgt id='45'> +5.0481800e+02 </wgt>
<wgt id='46'> +5.1028071e+02 </wgt>
<wgt id='47'> +5.2233176e+02 </wgt>
<wgt id='48'> +5.0814162e+02 </wgt>
<wgt id='49'> +5.0105850e+02 </wgt>
<wgt id='50'> +5.9655968e+02 </wgt>
<wgt id='51'> +4.9417301e+02 </wgt>
<wgt id='52'> +5.0349282e+02 </wgt>
<wgt id='53'> +5.0473734e+02 </wgt>
<wgt id='54'> +5.0953535e+02 </wgt>
<wgt id='55'> +4.6166924e+02 </wgt>
<wgt id='56'> +4.6471046e+02 </wgt>
<wgt id='57'> +4.9763516e+02 </wgt>
<wgt id='58'> +5.0200519e+02 </wgt>
<wgt id='59'> +5.0931002e+02 </wgt>
<wgt id='60'> +4.9353253e+02 </wgt>
<wgt id='61'> +4.6735728e+02 </wgt>
<wgt id='62'> +4.9738878e+02 </wgt>
<wgt id='63'> +5.0567812e+02 </wgt>
<wgt id='64'> +4.9674308e+02 </wgt>
<wgt id='65'> +5.8129713e+02 </wgt>
<wgt id='66'> +4.9421262e+02 </wgt>
<wgt id='67'> +5.0873287e+02 </wgt>
<wgt id='68'> +5.4851768e+02 </wgt>
<wgt id='69'> +4.9812509e+02 </wgt>
<wgt id='70'> +4.9684733e+02 </wgt>
<wgt id='71'> +5.1283491e+02 </wgt>
<wgt id='72'> +4.8730299e+02 </wgt>
<wgt id='73'> +4.9429201e+02 </wgt>
<wgt id='74'> +5.2644826e+02 </wgt>
<wgt id='75'> +5.1630766e+02 </wgt>
<wgt id='76'> +4.9330783e+02 </wgt>
<wgt id='77'> +4.9075726e+02 </wgt>
<wgt id='78'> +4.9497420e+02 </wgt>
<wgt id='79'> +4.9078028e+02 </wgt>
<wgt id='80'> +4.9619027e+02 </wgt>
<wgt id='81'> +4.9499260e+02 </wgt>
<wgt id='82'> +5.0916738e+02 </wgt>
<wgt id='83'> +5.1395338e+02 </wgt>
<wgt id='84'> +5.4989901e+02 </wgt>
<wgt id='85'> +5.2432350e+02 </wgt>
<wgt id='86'> +5.0434547e+02 </wgt>
<wgt id='87'> +5.0671505e+02 </wgt>
<wgt id='88'> +5.1089641e+02 </wgt>
<wgt id='89'> +5.1549488e+02 </wgt>
<wgt id='90'> +5.1304746e+02 </wgt>
<wgt id='91'> +5.2884527e+02 </wgt>
<wgt id='92'> +4.6181902e+02 </wgt>
<wgt id='93'> +4.9926144e+02 </wgt>
<wgt id='94'> +4.9721959e+02 </wgt>
<wgt id='95'> +4.8963194e+02 </wgt>
<wgt id='96'> +5.4456644e+02 </wgt>
<wgt id='97'> +5.0675649e+02 </wgt>
<wgt id='98'> +4.8659169e+02 </wgt>
<wgt id='99'> +4.8541260e+02 </wgt>
<wgt id='100'> +4.8739069e+02 </wgt>
<wgt id='101'> +5.4306827e+02 </wgt>
<wgt id='102'> +5.0346642e+02 </wgt>
<wgt id='103'> +5.4732880e+02 </wgt>
<wgt id='104'> +5.0643706e+02 </wgt>
<wgt id='105'> +5.2268545e+02 </wgt>
<wgt id='106'> +4.6153138e+02 </wgt>
<wgt id='107'> +4.8993243e+02 </wgt>
<wgt id='108'> +4.4800472e+02 </wgt>
<wgt id='109'> +4.7374375e+02 </wgt>
<wgt id='110'> +5.0340168e+02 </wgt>
<wgt id='111'> +4.9090813e+02 </wgt>
<wgt id='112'> +4.7879535e+02 </wgt>
<wgt id='113'> +4.6459062e+02 </wgt>
<wgt id='114'> +4.9782386e+02 </wgt>
<wgt id='115'> +4.9231026e+02 </wgt>
<wgt id='116'> +5.1283033e+02 </wgt>
<wgt id='117'> +5.0565947e+02 </wgt>
<wgt id='118'> +5.2359266e+02 </wgt>
<wgt id='119'> +4.8775840e+02 </wgt>
<wgt id='120'> +4.9650532e+02 </wgt>
<wgt id='121'> +4.9220092e+02 </wgt>
<wgt id='122'> +4.9881750e+02 </wgt>
<wgt id='123'> +5.1020845e+02 </wgt>
<wgt id='124'> +5.4838662e+02 </wgt>
<wgt id='125'> +5.5075331e+02 </wgt>
<wgt id='126'> +5.2309210e+02 </wgt>
<wgt id='127'> +5.1959648e+02 </wgt>
<wgt id='128'> +4.6340019e+02 </wgt>
<wgt id='129'> +5.6974124e+02 </wgt>
<wgt id='130'> +5.0454926e+02 </wgt>
<wgt id='131'> +5.3452539e+02 </wgt>
<wgt id='132'> +5.1325590e+02 </wgt>
<wgt id='133'> +5.0936110e+02 </wgt>
<wgt id='134'> +4.8177261e+02 </wgt>
<wgt id='135'> +5.1541532e+02 </wgt>
<wgt id='136'> +4.9987696e+02 </wgt>
<wgt id='137'> +4.7908772e+02 </wgt>
<wgt id='138'> +4.6603749e+02 </wgt>
<wgt id='139'> +5.1739462e+02 </wgt>
<wgt id='140'> +5.2898410e+02 </wgt>
<wgt id='141'> +5.0765029e+02 </wgt>
<wgt id='142'> +4.9261091e+02 </wgt>
<wgt id='143'> +5.0720718e+02 </wgt>
<wgt id='144'> +4.9998980e+02 </wgt>
<wgt id='145'> +5.0461608e+02 </wgt>
</rwgt>
</event>
<event>
 4      1 +5.0481800e+02 2.15559300e+02 7.54677100e-03 1.13723800e-01
       21 -1    0    0  501  502 +0.0000000000e+00 +0.0000000000e+00 +2.7144588286e+02 2.7144588286e+02 0.0000000000e+00 0.0000e+00 1.0000e+00
       21 -1    0    0  502  503 -0.0000000000e+00 -0.0000000000e+00 -2.5095457840e+02 2.5095457840e+02 0.0000000000e+00 0.0000e+00 1.0000e+00
        6  1    1    2  501    0 +9.8427976157e+01 -8.2757183275e+01 +1.5751458677e+02 2.6697689585e+02 1.7300000000e+02 0.0000e+00 1.0000e+00
       -6  1    1    2    0  503 -9.8427976157e+01 +8.2757183275e+01 -1.3702328231e+02 2.5542356541e+02 1.7300000000e+02 0.0000e+00 1.0000e+00
<mgrwt>
<rscale>  2 0.21555931E+03</rscale>
<asrwt>0</asrwt>
<pdfrwt beam="1">  1       21 0.41760905E-01 0.21555931E+03</pdfrwt>
<pdfrwt beam="2">  1       21 0.38608397E-01 0.21555931E+03</pdfrwt>
<totfact> 0.35286451E+04</totfact>
</mgrwt>
<rwgt>
<wgt id='1'> +6.5436214e+02 </wgt>
<wgt id='2'> +5.4852692e+02 </wgt>
<wgt id='3'> +5.0481800e+02 </wgt>
<wgt id='4'> +6.5436213e+02 </wgt>
<wgt id='5'> +4.7128456e+02 </wgt>
<wgt id='6'> +6.1570692e+02 </wgt>
<wgt id='7'> +5.0993886e+02 </wgt>
<wgt id='8'> +4.6875836e+02 </wgt>
<wgt id='9'> +6.1570691e+02 </wgt>
<wgt id='10'> +4.3772898e+02 </wgt>
<wgt id='11'> +5.7172638e+02 </wgt>
<wgt id='12'> +4.7377470e+02 </wgt>
<wgt id='13'> +4.3565989e+02 </wgt>
<wgt id='14'> +5.7172638e+02 </wgt>
<wgt id='15'> +4.0695570e+02 </wgt>
<wgt id='16'> +5.3651141e+02 </wgt>
<wgt id='17'> +4.6015721e+02 </wgt>
<wgt id='18'> +4.2606948e+02 </wgt>
<wgt id='19'> +5.3651140e+02 </wgt>
<wgt id='20'> +3.9926830e+02 </wgt>
<wgt id='21'> +4.2778583e+02 </wgt>
<wgt id='22'> +3.9563493e+02 </wgt>
<wgt id='23'> +5.0481800e+02 </wgt>
<wgt id='24'> +3.7084029e+02 </wgt>
<wgt id='25'> +4.6875837e+02 </wgt>
<wgt id='26'> +3.9744785e+02 </wgt>
<wgt id='27'> +3.6769961e+02 </wgt>
<wgt id='28'> +4.6875836e+02 </wgt>
<wgt id='29'> +3.4476943e+02 </wgt>
<wgt id='30'> +4.5281891e+02 </wgt>
<wgt id='31'> +3.9190877e+02 </wgt>
<wgt id='32'> +3.6437163e+02 </wgt>
<wgt id='33'> +4.5281890e+02 </wgt>
<wgt id='34'> +3.4258221e+02 </wgt>
<wgt id='35'> +4.2606948e+02 </wgt>
<wgt id='36'> +3.6433857e+02 </wgt>
<wgt id='37'> +3.3834422e+02 </wgt>
<wgt id='38'> +4.2606948e+02 </wgt>
<wgt id='39'> +3.1819027e+02 </wgt>
<wgt id='40'> +3.9563493e+02 </wgt>
<wgt id='41'> +3.3850018e+02 </wgt>
<wgt id='42'> +3.1445413e+02 </wgt>
<wgt id='43'> +3.9563493e+02 </wgt>
<wgt id='44'> +2.9582082e+02 </wgt>
<wgt id='45'> +5.0481800e+02 </wgt>
<wgt id='46'> +5.0801108e+02 </wgt>
<wgt id='47'> +5.2552993e+02 </wgt>
<wgt id='48'> +5.0867776e+02 </wgt>
<wgt id='49'> +5.0392274e+02 </wgt>
<wgt id='50'> +6.0030650e+02 </wgt>
<wgt id='51'> +4.9519113e+02 </wgt>
<wgt id='52'> +5.0255093e+02 </wgt>
<wgt id='53'> +5.0886516e+02 </wgt>
<wgt id='54'> +5.0758688e+02 </wgt>
<wgt id='55'> +4.4800739e+02 </wgt>
<wgt id='56'> +4.6586762e+02 </wgt>
<wgt id='57'> +4.8990438e+02 </wgt>
<wgt id='58'> +5.0531662e+02 </wgt>
<wgt id='59'> +4.9941201e+02 </wgt>
<wgt id='60'> +4.8615172e+02 </wgt>
<wgt id='61'> +4.8720212e+02 </wgt>
<wgt id='62'> +4.9911667e+02 </wgt>
<wgt id='63'> +5.0526703e+02 </wgt>
<wgt id='64'> +4.9708214e+02 </wgt>
<wgt id='65'> +5.9844518e+02 </wgt>
<wgt id='66'> +4.9338447e+02 </wgt>
<wgt id='67'> +5.0945255e+02 </wgt>
<wgt id='68'> +5.4467993e+02 </wgt>
<wgt id='69'> +4.9665728e+02 </wgt>
<wgt id='70'> +4.9548303e+02 </wgt>
<wgt id='71'> +5.1435993e+02 </wgt>
<wgt id='72'> +4.8342088e+02 </wgt>
<wgt id='73'> +4.9669532e+02 </wgt>
<wgt id='74'> +5.2339339e+02 </wgt>
<wgt id='75'> +5.1735877e+02 </wgt>
<wgt id='76'> +4.8818729e+02 </wgt>
<wgt id='77'> +4.8779993e+02 </wgt>
<wgt id='78'> +5.0232300e+02 </wgt>
<wgt id='79'> +4.8539514e+02 </wgt>
<wgt id='80'> +4.9948039e+02 </wgt>
<wgt id='81'> +4.9386038e+02 </wgt>
<wgt id='82'> +5.1774205e+02 </wgt>
<wgt id='83'> +5.1792454e+02 </wgt>
<wgt id='84'> +5.5817128e+02 </wgt>
<wgt id='85'> +5.3287245e+02 </wgt>
<wgt id='86'> +5.0371557e+02 </wgt>
<wgt id='87'> +5.0598053e+02 </wgt>
<wgt id='88'> +5.1544756e+02 </wgt>
<wgt id='89'> +5.1892527e+02 </wgt>
<wgt id='90'> +5.1136881e+02 </wgt>
<wgt id='91'> +5.3763033e+02 </wgt>
<wgt id='92'> +4.5676748e+02 </wgt>
<wgt id='93'> +4.9787663e+02 </wgt>
<wgt id='94'> +4.9985323e+02 </wgt>
<wgt id='95'> +4.8112672e+02 </wgt>
<wgt id='96'> +5.5177137e+02 </wgt>
<wgt id='97'> +5.1120665e+02 </wgt>
<wgt id='98'> +4.8133076e+02 </wgt>
<wgt id='99'> +4.8900181e+02 </wgt>
<wgt id='100'> +4.9599834e+02 </wgt>
<wgt id='101'> +5.3658447e+02 </wgt>
<wgt id='102'> +4.9491236e+02 </wgt>
<wgt id='103'> +5.5221194e+02 </wgt>
<wgt id='104'> +5.0594075e+02 </wgt>
<wgt id='105'> +5.2225889e+02 </wgt>
<wgt id='106'> +4.5771210e+02 </wgt>
<wgt id='107'> +4.9313330e+02 </wgt>
<wgt id='108'> +4.4616248e+02 </wgt>
<wgt id='109'> +4.6997259e+02 </wgt>
<wgt id='110'> +5.0462682e+02 </wgt>
<wgt id='111'> +4.8914540e+02 </wgt>
<wgt id='112'> +4.7841872e+02 </wgt>
<wgt id='113'> +4.5969056e+02 </wgt>
<wgt id='114'> +4.9784418e+02 </wgt>
<wgt id='115'> +5.0123557e+02 </wgt>
<wgt id='116'> +5.0914752e+02 </wgt>
<wgt id='117'> +5.1026186e+02 </wgt>
<wgt id='118'> +5.2207592e+02 </wgt>
<wgt id='119'> +4.8255487e+02 </wgt>
<wgt id='120'> +5.0003190e+02 </wgt>
<wgt id='121'> +4.8798571e+02 </wgt>
<wgt id='122'> +4.9725104e+02 </wgt>
<wgt id='123'> +5.1323348e+02 </wgt>
<wgt id='124'> +5.4468837e+02 </wgt>
<wgt id='125'> +5.4515785e+02 </wgt>
<wgt id='126'> +5.2724922e+02 </wgt>
<wgt id='127'> +5.2203116e+02 </wgt>
<wgt id='128'> +4.6586740e+02 </wgt>
<wgt id='129'> +5.7460143e+02 </wgt>
<wgt id='130'> +5.1091498e+02 </wgt>
<wgt id='131'> +5.4170611e+02 </wgt>
<wgt id='132'> +5.0094922e+02 </wgt>
<wgt id='133'> +5.0441766e+02 </wgt>
<wgt id='134'> +4.7417387e+02 </wgt>
<wgt id='135'> +5.1823967e+02 </wgt>
<wgt id='136'> +4.8425875e+02 </wgt>
<wgt id='137'> +4.7641319e+02 </wgt>
<wgt id='138'> +4.6285883e+02 </wgt>
<wgt id='139'> +5.1638560e+02 </wgt>
<wgt id='140'> +5.3574302e+02 </wgt>
<wgt id='141'> +5.0501223e+02 </wgt>
<wgt id='142'> +5.0514625e+02 </wgt>
<wgt id='143'> +5.0129878e+02 </wgt>
<wgt id='144'> +5.0184672e+02 </wgt>
<wgt id='145'> +5.0621830e+02 </wgt>
</rwgt>
</event>
<event>
 4      1 +5.0481800e+02 2.11675700e+02 7.54677100e-03 1.14024600e-01
       -3 -1    0    0    0  501 -0.0000000000e+00 +0.0000000000e+00 +2.5013439296e+02 2.5013439296e+02 0.0000000000e+00 0.0000e+00 1.0000e+00
        3 -1    0    0  502    0 +0.0000000000e+00 -0.0000000000e+00 -1.9615177062e+02 1.9615177062e+02 0.0000000000e+00 0.0000e+00 -1.0000e+00
        6  1    1    2  502    0 +1.2153276886e+02 +1.0363208905e+01 -3.8742351419e+01 2.1519196035e+02 1.7300000000e+02 0.0000e+00 1.0000e+00
       -6  1    1    2    0  501 -1.2153276886e+02 -1.0363208905e+01 +9.2724973759e+01 2.3109420322e+02 1.7300000000e+02 0.0000e+00 -1.0000e+00
<mgrwt>
<rscale>  2 0.21167572E+03</rscale>
<asrwt>0</asrwt>
<pdfrwt beam="2">  1        3 0.30177195E-01 0.21167572E+03</pdfrwt>
<pdfrwt beam="1">  1       -3 0.38482214E-01 0.21167572E+03</pdfrwt>
<totfact> 0.17455882E+02</totfact>
</mgrwt>
<rwgt>
<wgt id='1'> +5.6968271e+02 </wgt>
<wgt id='2'> +5.1165435e+02 </wgt>
<wgt id='3'> +5.0481800e+02 </wgt>
<wgt id='4'> +5.6968272e+02 </wgt>
<wgt id='5'> +5.0124218e+02 </wgt>
<wgt id='6'> +6.1634163e+02 </wgt>
<wgt id='7'> +5.4371672e+02 </wgt>
<wgt id='8'> +5.3530023e+02 </wgt>
<wgt id='9'> +6.1634163e+02 </wgt>
<wgt id='10'> +5.3091153e+02 </wgt>
<wgt id='11'> +6.5355795e+02 </wgt>
<wgt id='12'> +5.6889619e+02 </wgt>
<wgt id='13'> +5.5919595e+02 </wgt>
<wgt id='14'> +6.5355795e+02 </wgt>
<wgt id='15'> +5.5414999e+02 </wgt>
<wgt id='16'> +4.6660176e+02 </wgt>
<wgt id='17'> +4.3087722e+02 </wgt>
<wgt id='18'> +4.2592218e+02 </wgt>
<wgt id='19'> +4.6660176e+02 </wgt>
<wgt id='20'> +4.2326623e+02 </wgt>
<wgt id='21'> +4.5787776e+02 </wgt>
<wgt id='22'> +4.5164048e+02 </wgt>
<wgt id='23'> +5.0481800e+02 </wgt>
<wgt id='24'> +4.4832005e+02 </wgt>
<wgt id='25'> +5.3530023e+02 </wgt>
<wgt id='26'> +4.7908204e+02 </wgt>
<wgt id='27'> +4.7180164e+02 </wgt>
<wgt id='28'> +5.3530023e+02 </wgt>
<wgt id='29'> +4.6794341e+02 </wgt>
<wgt id='30'> +3.9367859e+02 </wgt>
<wgt id='31'> +3.6780602e+02 </wgt>
<wgt id='32'> +3.6412881e+02 </wgt>
<wgt id='33'> +3.9367859e+02 </wgt>
<wgt id='34'> +3.6214670e+02 </wgt>
<wgt id='35'> +4.2592218e+02 </wgt>
<wgt id='36'> +3.9085426e+02 </wgt>
<wgt id='37'> +3.8611586e+02 </wgt>
<wgt id='38'> +4.2592218e+02 </wgt>
<wgt id='39'> +3.8358276e+02 </wgt>
<wgt id='40'> +4.5164048e+02 </wgt>
<wgt id='41'> +4.0895469e+02 </wgt>
<wgt id='42'> +4.0335202e+02 </wgt>
<wgt id='43'> +4.5164048e+02 </wgt>
<wgt id='44'> +4.0037251e+02 </wgt>
<wgt id='45'> +5.0481800e+02 </wgt>
<wgt id='46'> +5.3653699e+02 </wgt>
<wgt id='47'> +4.6907211e+02 </wgt>
<wgt id='48'> +5.6925120e+02 </wgt>
<wgt id='49'> +5.3408164e+02 </wgt>
<wgt id='50'> +4.8890332e+02 </wgt>
<wgt id='51'> +5.0022659e+02 </wgt>
<wgt id='52'> +5.2709639e+02 </wgt>
<wgt id='53'> +4.5208489e+02 </wgt>
<wgt id='54'> +4.7940950e+02 </wgt>
<wgt id='55'> +5.4419870e+02 </wgt>
<wgt id='56'> +3.8345933e+02 </wgt>
<wgt id='57'> +6.2479597e+02 </wgt>
<wgt id='58'> +4.3825756e+02 </wgt>
<wgt id='59'> +4.9606241e+02 </wgt>
<wgt id='60'> +5.0830537e+02 </wgt>
<wgt id='61'> +6.0266488e+02 </wgt>
<wgt id='62'> +4.2908597e+02 </wgt>
<wgt id='63'> +4.7375610e+02 </wgt>
<wgt id='64'> +5.6488804e+02 </wgt>
<wgt id='65'> +5.8974236e+02 </wgt>
<wgt id='66'> +4.4755885e+02 </wgt>
<wgt id='67'> +4.0845283e+02 </wgt>
<wgt id='68'> +5.5811555e+02 </wgt>
<wgt id='69'> +5.5347824e+02 </wgt>
<wgt id='70'> +4.0112937e+02 </wgt>
<wgt id='71'> +3.9682432e+02 </wgt>
<wgt id='72'> +4.9822903e+02 </wgt>
<wgt id='73'> +5.1243585e+02 </wgt>
<wgt id='74'> +5.5942618e+02 </wgt>
<wgt id='75'> +6.0159616e+02 </wgt>
<wgt id='76'> +4.5049796e+02 </wgt>
<wgt id='77'> +5.5968431e+02 </wgt>
<wgt id='78'> +6.0465376e+02 </wgt>
<wgt id='79'> +3.8437373e+02 </wgt>
<wgt id='80'> +4.6855725e+02 </wgt>
<wgt id='81'> +4.8247132e+02 </wgt>
<wgt id='82'> +4.5598382e+02 </wgt>
<wgt id='83'> +7.0885250e+02 </wgt>
<wgt id='84'> +5.1649026e+02 </wgt>
<wgt id='85'> +5.6585822e+02 </wgt>
<wgt id='86'> +3.6162041e+02 </wgt>
<wgt id='87'> +4.9410207e+02 </wgt>
<wgt id='88'> +6.8358782e+02 </wgt>
<wgt id='89'> +4.6842978e+02 </wgt>
<wgt id='90'> +4.1490633e+02 </wgt>
<wgt id='91'> +5.8232055e+02 </wgt>
<wgt id='92'> +5.2867865e+02 </wgt>
<wgt id='93'> +4.9875605e+02 </wgt>
<wgt id='94'> +4.6156625e+02 </wgt>
<wgt id='95'> +5.5558825e+02 </wgt>
<wgt id='96'> +5.5264305e+02 </wgt>
<wgt id='97'> +4.4620154e+02 </wgt>
<wgt id='98'> +3.6560063e+02 </wgt>
<wgt id='99'> +5.5280506e+02 </wgt>
<wgt id='100'> +4.8492494e+02 </wgt>
<wgt id='101'> +4.8973822e+02 </wgt>
<wgt id='102'> +5.9818159e+02 </wgt>
<wgt id='103'> +6.2592909e+02 </wgt>
<wgt id='104'> +3.6256360e+02 </wgt>
<wgt id='105'> +4.5117547e+02 </wgt>
<wgt id='106'> +4.8318501e+02 </wgt>
<wgt id='107'> +4.9257087e+02 </wgt>
<wgt id='108'> +4.6301029e+02 </wgt>
<wgt id='109'> +4.7434785e+02 </wgt>
<wgt id='110'> +4.3855479e+02 </wgt>
<wgt id='111'> +4.9490189e+02 </wgt>
<wgt id='112'> +5.7154058e+02 </wgt>
<wgt id='113'> +5.2118198e+02 </wgt>
<wgt id='114'> +4.4360083e+02 </wgt>
<wgt id='115'> +5.0827203e+02 </wgt>
<wgt id='116'> +5.0017655e+02 </wgt>
<wgt id='117'> +6.2796407e+02 </wgt>
<wgt id='118'> +7.0517125e+02 </wgt>
<wgt id='119'> +4.3859577e+02 </wgt>
<wgt id='120'> +6.2162774e+02 </wgt>
<wgt id='121'> +4.8667491e+02 </wgt>
<wgt id='122'> +5.2927216e+02 </wgt>
<wgt id='123'> +4.1715576e+02 </wgt>
<wgt id='124'> +5.3761853e+02 </wgt>
<wgt id='125'> +5.2752223e+02 </wgt>
<wgt id='126'> +5.0217440e+02 </wgt>
<wgt id='127'> +5.2273532e+02 </wgt>
<wgt id='128'> +4.5541272e+02 </wgt>
<wgt id='129'> +5.4134946e+02 </wgt>
<wgt id='130'> +7.3888542e+02 </wgt>
<wgt id='131'> +5.3552873e+02 </wgt>
<wgt id='132'> +6.1918693e+02 </wgt>
<wgt id='133'> +4.2448666e+02 </wgt>
<wgt id='134'> +5.8176757e+02 </wgt>
<wgt id='135'> +5.6918641e+02 </wgt>
<wgt id='136'> +3.6364982e+02 </wgt>
<wgt id='137'> +3.8552713e+02 </wgt>
<wgt id='138'> +4.7858893e+02 </wgt>
<wgt id='139'> +4.7768043e+02 </wgt>
<wgt id='140'> +5.8676647e+02 </wgt>
<wgt id='141'> +5.0537820e+02 </wgt>
<wgt id='142'> +4.9828107e+02 </wgt>
<wgt id='143'> +4.2619522e+02 </wgt>
<wgt id='144'> +4.5974880e+02 </wgt>
<wgt id='145'> +4.8540449e+02 </wgt>
</rwgt>
</event>
<event>
 4      1 +5.0481800e+02 1.77984000e+02 7.54677100e-03 1.16976900e-01
       21 -1    0    0  503  502 +0.0000000000e+00 +0.0000000000e+00 +4.2466135777e+02 4.2466135777e+02 0.0000000000e+00 0.0000e+00 -1.0000e+00
       21 -1    0    0  501  503 -0.0000000000e+00 -0.0000000000e+00 -6.4578494429e+02 6.4578494429e+02 0.0000000000e+00 0.0000e+00 -1.0000e+00
        6  1    1    2  501    0 -5.9335604563e+00 -4.1401589352e+01 -6.1392398996e+02 6.3920338249e+02 1.7300000000e+02 0.0000e+00 -1.0000e+00
       -6  1    1    2    0  502 +5.9335604563e+00 +4.1401589352e+01 +3.9280040344e+02 4.3124291958e+02 1.7300000000e+02 0.0000e+00 -1.0000e+00
<mgrwt>
<rscale>  2 0.17798398E+03</rscale>
<asrwt>0</asrwt>
<pdfrwt beam="1">  1       21 0.65332517E-01 0.17798398E+03</pdfrwt>
<pdfrwt beam="2">  1       21 0.99351529E-01 0.17798398E+03</pdfrwt>
<totfact> 0.18222655E+03</totfact>
</mgrwt>
<rwgt>
<wgt id='1'> +6.9749431e+02 </wgt>
<wgt id='2'> +9.8913389e+02 </wgt>
<wgt id='3'> +5.0481799e+02 </wgt>
<wgt id='4'> +6.9749431e+02 </wgt>
<wgt id='5'> +3.1897787e+02 </wgt>
<wgt id='6'> +6.2177503e+02 </wgt>
<wgt id='7'> +8.8064465e+02 </wgt>
<wgt id='8'> +4.4509282e+02 </wgt>
<wgt id='9'> +6.2177503e+02 </wgt>
<wgt id='10'> +2.8350055e+02 </wgt>
<wgt id='11'> +5.4821264e+02 </wgt>
<wgt id='12'> +7.8503321e+02 </wgt>
<wgt id='13'> +3.9437332e+02 </wgt>
<wgt id='14'> +5.4821263e+02 </wgt>
<wgt id='15'> +2.5332236e+02 </wgt>
<wgt id='16'> +5.6629434e+02 </wgt>
<wgt id='17'> +7.8293237e+02 </wgt>
<wgt id='18'> +4.2399624e+02 </wgt>
<wgt id='19'> +5.6629434e+02 </wgt>
<wgt id='20'> +2.7370580e+02 </wgt>
<wgt id='21'> +6.9705953e+02 </wgt>
<wgt id='22'> +3.7383311e+02 </wgt>
<wgt id='23'> +5.0481799e+02 </wgt>
<wgt id='24'> +2.4326373e+02 </wgt>
<wgt id='25'> +4.4509283e+02 </wgt>
<wgt id='26'> +6.2137990e+02 </wgt>
<wgt id='27'> +3.3123384e+02 </wgt>
<wgt id='28'> +4.4509282e+02 </wgt>
<wgt id='29'> +2.1736868e+02 </wgt>
<wgt id='30'> +4.7563017e+02 </wgt>
<wgt id='31'> +6.3570073e+02 </wgt>
<wgt id='32'> +3.6134714e+02 </wgt>
<wgt id='33'> +4.7563017e+02 </wgt>
<wgt id='34'> +2.3742985e+02 </wgt>
<wgt id='35'> +4.2399624e+02 </wgt>
<wgt id='36'> +5.6597641e+02 </wgt>
<wgt id='37'> +3.1859605e+02 </wgt>
<wgt id='38'> +4.2399624e+02 </wgt>
<wgt id='39'> +2.1102245e+02 </wgt>
<wgt id='40'> +3.7383312e+02 </wgt>
<wgt id='41'> +5.0452845e+02 </wgt>
<wgt id='42'> +2.8229119e+02 </wgt>
<wgt id='43'> +3.7383311e+02 </wgt>
<wgt id='44'> +1.8855944e+02 </wgt>
<wgt id='45'> +5.0481800e+02 </wgt>
<wgt id='46'> +5.3091382e+02 </wgt>
<wgt id='47'> +5.3183819e+02 </wgt>
<wgt id='48'> +5.1822419e+02 </wgt>
<wgt id='49'> +4.9491035e+02 </wgt>
<wgt id='50'> +6.5805252e+02 </wgt>
<wgt id='51'> +4.9091904e+02 </wgt>
<wgt id='52'> +5.0680677e+02 </wgt>
<wgt id='53'> +4.8859292e+02 </wgt>
<wgt id='54'> +5.1418475e+02 </wgt>
<wgt id='55'> +4.6850092e+02 </wgt>
<wgt id='56'> +4.4148742e+02 </wgt>
<wgt id='57'> +5.0474771e+02 </wgt>
<wgt id='58'> +4.7969759e+02 </wgt>
<wgt id='59'> +5.3873647e+02 </wgt>
<wgt id='60'> +5.1443667e+02 </wgt>
<wgt id='61'> +4.1701838e+02 </wgt>
<wgt id='62'> +4.9686430e+02 </wgt>
<wgt id='63'> +5.0744157e+02 </wgt>
<wgt id='64'> +4.8166964e+02 </wgt>
<wgt id='65'> +5.7071262e+02 </wgt>
<wgt id='66'> +4.9772533e+02 </wgt>
<wgt id='67'> +5.0775242e+02 </wgt>
<wgt id='68'> +5.7946410e+02 </wgt>
<wgt id='69'> +5.2378337e+02 </wgt>
<wgt id='70'> +4.9446333e+02 </wgt>
<wgt id='71'> +5.0859327e+02 </wgt>
<wgt id='72'> +4.5595872e+02 </wgt>
<wgt id='73'> +4.7980993e+02 </wgt>
<wgt id='74'> +5.5358841e+02 </wgt>
<wgt id='75'> +5.2283108e+02 </wgt>
<wgt id='76'> +4.9247163e+02 </wgt>
<wgt id='77'> +5.0147646e+02 </wgt>
<wgt id='78'> +4.6628658e+02 </wgt>
<wgt id='79'> +5.0606462e+02 </wgt>
<wgt id='80'> +4.8333539e+02 </wgt>
<wgt id='81'> +4.8820589e+02 </wgt>
<wgt id='82'> +4.9045787e+02 </wgt>
<wgt id='83'> +5.2082949e+02 </wgt>
<wgt id='84'> +5.5609907e+02 </wgt>
<wgt id='85'> +5.1692089e+02 </wgt>
<wgt id='86'> +5.1755645e+02 </wgt>
<wgt id='87'> +5.1363359e+02 </wgt>
<wgt id='88'> +5.1321726e+02 </wgt>
<wgt id='89'> +5.1806366e+02 </wgt>
<wgt id='90'> +5.1912082e+02 </wgt>
<wgt id='91'> +5.1434090e+02 </wgt>
<wgt id='92'> +4.2893485e+02 </wgt>
<wgt id='93'> +5.1022024e+02 </wgt>
<wgt id='94'> +4.7882420e+02 </wgt>
<wgt id='95'> +4.8953810e+02 </wgt>
<wgt id='96'> +5.6669612e+02 </wgt>
<wgt id='97'> +4.9036212e+02 </wgt>
<wgt id='98'> +4.9556019e+02 </wgt>
<wgt id='99'> +4.6939541e+02 </wgt>
<wgt id='100'> +4.4388190e+02 </wgt>
<wgt id='101'> +5.9385358e+02 </wgt>
<wgt id='102'> +5.4629145e+02 </wgt>
<wgt id='103'> +5.6024632e+02 </wgt>
<wgt id='104'> +5.1900672e+02 </wgt>
<wgt id='105'> +5.1201068e+02 </wgt>
<wgt id='106'> +4.3233474e+02 </wgt>
<wgt id='107'> +4.5651201e+02 </wgt>
<wgt id='108'> +4.1741806e+02 </wgt>
<wgt id='109'> +4.5776853e+02 </wgt>
<wgt id='110'> +4.9398292e+02 </wgt>
<wgt id='111'> +4.8079148e+02 </wgt>
<wgt id='112'> +4.6350559e+02 </wgt>
<wgt id='113'> +4.5274982e+02 </wgt>
<wgt id='114'> +4.7177458e+02 </wgt>
<wgt id='115'> +4.5567697e+02 </wgt>
<wgt id='116'> +5.4716805e+02 </wgt>
<wgt id='117'> +4.9159144e+02 </wgt>
<wgt id='118'> +5.5190219e+02 </wgt>
<wgt id='119'> +4.8440587e+02 </wgt>
<wgt id='120'> +4.7903492e+02 </wgt>
<wgt id='121'> +4.8595334e+02 </wgt>
<wgt id='122'> +4.9523985e+02 </wgt>
<wgt id='123'> +5.1459180e+02 </wgt>
<wgt id='124'> +5.9044891e+02 </wgt>
<wgt id='125'> +5.9416088e+02 </wgt>
<wgt id='126'> +5.3155463e+02 </wgt>
<wgt id='127'> +5.2679017e+02 </wgt>
<wgt id='128'> +4.4322172e+02 </wgt>
<wgt id='129'> +5.7981166e+02 </wgt>
<wgt id='130'> +5.0635260e+02 </wgt>
<wgt id='131'> +5.2736312e+02 </wgt>
<wgt id='132'> +5.4518200e+02 </wgt>
<wgt id='133'> +5.3636643e+02 </wgt>
<wgt id='134'> +4.9076580e+02 </wgt>
<wgt id='135'> +5.1245221e+02 </wgt>
<wgt id='136'> +5.3285168e+02 </wgt>
<wgt id='137'> +4.8836697e+02 </wgt>
<wgt id='138'> +4.9086051e+02 </wgt>
<wgt id='139'> +5.2994841e+02 </wgt>
<wgt id='140'> +5.1349489e+02 </wgt>
<wgt id='141'> +5.2020408e+02 </wgt>
<wgt id='142'> +4.5511672e+02 </wgt>
<wgt id='143'> +5.2187970e+02 </wgt>
<wgt id='144'> +4.8124478e+02 </wgt>
<wgt id='145'> +5.0043362e+02 </wgt>
</rwgt>
</event>
<event>
 4      1 +5.0481800e+02 2.26129800e+02 7.54677100e-03 1.12939400e-01
       21 -1    0    0  503  502 +0.0000000000e+00 +0.0000000000e+00 +1.7766830020e+03 1.7766830020e+03 0.0000000000e+00 0.0000e+00 -1.0000e+00
       21 -1    0    0  501  503 -0.0000000000e+00 -0.0000000000e+00 -2.9498538577e+01 2.9498538577e+01 0.0000000000e+00 0.0000e+00 1.0000e+00
        6  1    1    2  501    0 +5.5224962274e+01 -1.3474377621e+02 +7.3274147104e+02 7.6684075600e+02 1.7300000000e+02 0.0000e+00 -1.0000e+00
       -6  1    1    2    0  502 -5.5224962274e+01 +1.3474377621e+02 +1.0144429924e+03 1.0393407846e+03 1.7300000000e+02 0.0000e+00 1.0000e+00
<mgrwt>
<rscale>  2 0.22612979E+03</rscale>
<asrwt>0</asrwt>
<pdfrwt beam="1">  1       21 0.27333576E+00 0.22612979E+03</pdfrwt>
<pdfrwt beam="2">  1       21 0.45382381E-02 0.22612979E+03</pdfrwt>
<totfact> 0.14946419E+04</totfact>
</mgrwt>
<rwgt>
<wgt id='1'> +6.9447399e+02 </wgt>
<wgt id='2'> +6.1075841e+02 </wgt>
<wgt id='3'> +5.0481800e+02 </wgt>
<wgt id='4'> +6.9447399e+02 </wgt>
<wgt id='5'> +5.0206620e+02 </wgt>
<wgt id='6'> +6.1407416e+02 </wgt>
<wgt id='7'> +5.3717755e+02 </wgt>
<wgt id='8'> +4.4374388e+02 </wgt>
<wgt id='9'> +6.1407416e+02 </wgt>
<wgt id='10'> +4.4137820e+02 </wgt>
<wgt id='11'> +5.3978197e+02 </wgt>
<wgt id='12'> +4.7330190e+02 </wgt>
<wgt id='13'> +3.9240591e+02 </wgt>
<wgt id='14'> +5.3978197e+02 </wgt>
<wgt id='15'> +3.9035566e+02 </wgt>
<wgt id='16'> +5.7091308e+02 </wgt>
<wgt id='17'> +5.0921146e+02 </wgt>
<wgt id='18'> +4.2645177e+02 </wgt>
<wgt id='19'> +5.7091308e+02 </wgt>
<wgt id='20'> +4.2422811e+02 </wgt>
<wgt id='21'> +4.4786443e+02 </wgt>
<wgt id='22'> +3.7485860e+02 </wgt>
<wgt id='23'> +5.0481800e+02 </wgt>
<wgt id='24'> +3.7294891e+02 </wgt>
<wgt id='25'> +4.4374388e+02 </wgt>
<wgt id='26'> +3.9460897e+02 </wgt>
<wgt id='27'> +3.3149015e+02 </wgt>
<wgt id='28'> +4.4374388e+02 </wgt>
<wgt id='29'> +3.2983667e+02 </wgt>
<wgt id='30'> +4.8228648e+02 </wgt>
<wgt id='31'> +4.3249702e+02 </wgt>
<wgt id='32'> +3.6500375e+02 </wgt>
<wgt id='33'> +4.8228648e+02 </wgt>
<wgt id='34'> +3.6317830e+02 </wgt>
<wgt id='35'> +4.2645177e+02 </wgt>
<wgt id='36'> +3.8039213e+02 </wgt>
<wgt id='37'> +3.2084470e+02 </wgt>
<wgt id='38'> +4.2645177e+02 </wgt>
<wgt id='39'> +3.1927858e+02 </wgt>
<wgt id='40'> +3.7485859e+02 </wgt>
<wgt id='41'> +3.3515979e+02 </wgt>
<wgt id='42'> +2.8372528e+02 </wgt>
<wgt id='43'> +3.7485860e+02 </wgt>
<wgt id='44'> +2.8237054e+02 </wgt>
<wgt id='45'> +5.0481800e+02 </wgt>
<wgt id='46'> +5.1251100e+02 </wgt>
<wgt id='47'> +5.6571257e+02 </wgt>
<wgt id='48'> +5.0447505e+02 </wgt>
<wgt id='49'> +4.4624014e+02 </wgt>
<wgt id='50'> +5.9023117e+02 </wgt>
<wgt id='51'> +4.7311010e+02 </wgt>
<wgt id='52'> +4.2680984e+02 </wgt>
<wgt id='53'> +5.4070598e+02 </wgt>
<wgt id='54'> +5.4012172e+02 </wgt>
<wgt id='55'> +6.2164829e+02 </wgt>
<wgt id='56'> +4.9533549e+02 </wgt>
<wgt id='57'> +5.4699755e+02 </wgt>
<wgt id='58'> +4.3174675e+02 </wgt>
<wgt id='59'> +5.4720635e+02 </wgt>
<wgt id='60'> +4.8950314e+02 </wgt>
<wgt id='61'> +3.9841422e+02 </wgt>
<wgt id='62'> +4.3885355e+02 </wgt>
<wgt id='63'> +5.4060815e+02 </wgt>
<wgt id='64'> +5.0856529e+02 </wgt>
<wgt id='65'> +3.9943679e+02 </wgt>
<wgt id='66'> +5.2341781e+02 </wgt>
<wgt id='67'> +5.0362696e+02 </wgt>
<wgt id='68'> +6.9861249e+02 </wgt>
<wgt id='69'> +5.9279596e+02 </wgt>
<wgt id='70'> +6.2473911e+02 </wgt>
<wgt id='71'> +4.3681672e+02 </wgt>
<wgt id='72'> +4.2572081e+02 </wgt>
<wgt id='73'> +4.4247963e+02 </wgt>
<wgt id='74'> +6.4127158e+02 </wgt>
<wgt id='75'> +6.1242365e+02 </wgt>
<wgt id='76'> +5.1935390e+02 </wgt>
<wgt id='77'> +4.4578363e+02 </wgt>
<wgt id='78'> +4.1055706e+02 </wgt>
<wgt id='79'> +5.7621617e+02 </wgt>
<wgt id='80'> +4.0479680e+02 </wgt>
<wgt id='81'> +5.5410311e+02 </wgt>
<wgt id='82'> +5.0304036e+02 </wgt>
<wgt id='83'> +5.0115179e+02 </wgt>
<wgt id='84'> +4.5426224e+02 </wgt>
<wgt id='85'> +4.2258644e+02 </wgt>
<wgt id='86'> +5.5782423e+02 </wgt>
<wgt id='87'> +4.7974263e+02 </wgt>
<wgt id='88'> +5.1562458e+02 </wgt>
<wgt id='89'> +3.4637452e+02 </wgt>
<wgt id='90'> +4.2171803e+02 </wgt>
<wgt id='91'> +3.8782931e+02 </wgt>
<wgt id='92'> +4.7845407e+02 </wgt>
<wgt id='93'> +5.2481570e+02 </wgt>
<wgt id='94'> +4.4631822e+02 </wgt>
<wgt id='95'> +5.2796988e+02 </wgt>
<wgt id='96'> +5.1886524e+02 </wgt>
<wgt id='97'> +4.2855174e+02 </wgt>
<wgt id='98'> +6.0106017e+02 </wgt>
<wgt id='99'> +3.8653514e+02 </wgt>
<wgt id='100'> +3.3426505e+02 </wgt>
<wgt id='101'> +6.0405546e+02 </wgt>
<wgt id='102'> +5.9180902e+02 </wgt>
<wgt id='103'> +4.3453553e+02 </wgt>
<wgt id='104'> +5.6621976e+02 </wgt>
<wgt id='105'> +5.1400882e+02 </wgt>
<wgt id='106'> +5.1585188e+02 </wgt>
<wgt id='107'> +5.1773658e+02 </wgt>
<wgt id='108'> +4.7628502e+02 </wgt>
<wgt id='109'> +5.0749080e+02 </wgt>
<wgt id='110'> +4.2059420e+02 </wgt>
<wgt id='111'> +4.7787474e+02 </wgt>
<wgt id='112'> +5.3271511e+02 </wgt>
<wgt id='113'> +6.0194128e+02 </wgt>
<wgt id='114'> +5.0790479e+02 </wgt>
<wgt id='115'> +4.7517667e+02 </wgt>
<wgt id='116'> +5.7611988e+02 </wgt>
<wgt id='117'> +5.0991397e+02 </wgt>
<wgt id='118'> +5.0229019e+02 </wgt>
<wgt id='119'> +5.6859186e+02 </wgt>
<wgt id='120'> +4.9901838e+02 </wgt>
<wgt id='121'> +4.6934485e+02 </wgt>
<wgt id='122'> +4.8017715e+02 </wgt>
<wgt id='123'> +4.5296923e+02 </wgt>
<wgt id='124'> +5.6395457e+02 </wgt>
<wgt id='125'> +7.0565015e+02 </wgt>
<wgt id='126'> +4.7896865e+02 </wgt>
<wgt id='127'> +4.5597727e+02 </wgt>
<wgt id='128'> +5.0718799e+02 </wgt>
<wgt id='129'> +4.7812117e+02 </wgt>
<wgt id='130'> +5.1128942e+02 </wgt>
<wgt id='131'> +4.2915803e+02 </wgt>
<wgt id='132'> +5.4051075e+02 </wgt>
<wgt id='133'> +5.6412691e+02 </wgt>
<wgt id='134'> +5.6106276e+02 </wgt>
<wgt id='135'> +4.6895828e+02 </wgt>
<wgt id='136'> +6.2197211e+02 </wgt>
<wgt id='137'> +5.9043785e+02 </wgt>
<wgt id='138'> +5.5242527e+02 </wgt>
<wgt id='139'> +5.2446361e+02 </wgt>
<wgt id='140'> +4.8432268e+02 </wgt>
<wgt id='141'> +6.4567868e+02 </wgt>
<wgt id='142'> +2.5703364e+02 </wgt>
<wgt id='143'> +5.1051133e+02 </wgt>
<wgt id='144'> +4.3465323e+02 </wgt>
<wgt id='145'> +4.5158644e+02 </wgt>
</rwgt>
</event>
<event>
 4      1 +5.0481800e+02 1.74915100e+02 7.54677100e-03 1.17281700e-01
       21 -1    0    0  501  502 +0.0000000000e+00 +0.0000000000e+00 +1.8100643607e+02 1.8100643607e+02 0.0000000000e+00 0.0000e+00 1.0000e+00
       21 -1    0    0  502  503 -0.0000000000e+00 -0.0000000000e+00 -2.0640802453e+02 2.0640802453e+02 0.0000000000e+00 0.0000e+00 1.0000e+00
        6  1    1    2  501    0 -2.5693329134e+01 +2.4804788099e+00 -9.5133149796e+01 1.9911206927e+02 1.7300000000e+02 0.0000e+00 1.0000e+00
       -6  1    1    2    0  503 +2.5693329134e+01 -2.4804788099e+00 +6.9731561334e+01 1.8830239134e+02 1.7300000000e+02 0.0000e+00 1.0000e+00
<mgrwt>
<rscale>  2 0.17491512E+03</rscale>
<asrwt>0</asrwt>
<pdfrwt beam="1">  1       21 0.27847144E-01 0.17491512E+03</pdfrwt>
<pdfrwt beam="2">  1       21 0.31755081E-01 0.17491512E+03</pdfrwt>
<totfact> 0.11814993E+05</totfact>
</mgrwt>
<rwgt>
<wgt id='1'> +6.4334861e+02 </wgt>
<wgt id='2'> +7.4419965e+02 </wgt>
<wgt id='3'> +5.0481800e+02 </wgt>
<wgt id='4'> +6.4334861e+02 </wgt>
<wgt id='5'> +4.8806444e+02 </wgt>
<wgt id='6'> +6.2228567e+02 </wgt>
<wgt id='7'> +7.2411453e+02 </wgt>
<wgt id='8'> +4.7848733e+02 </wgt>
<wgt id='9'> +6.2228567e+02 </wgt>
<wgt id='10'> +4.6205406e+02 </wgt>
<wgt id='11'> +5.8982803e+02 </wgt>
<wgt id='12'> +6.9401904e+02 </wgt>
<wgt id='13'> +4.5243195e+02 </wgt>
<wgt id='14'> +5.8982803e+02 </wgt>
<wgt id='15'> +4.3684007e+02 </wgt>
<wgt id='16'> +5.2190493e+02 </wgt>
<wgt id='17'> +5.9518656e+02 </wgt>
<wgt id='18'> +4.2375142e+02 </wgt>
<wgt id='19'> +5.2190492e+02 </wgt>
<wgt id='20'> +4.1094011e+02 </wgt>
<wgt id='21'> +5.7912314e+02 </wgt>
<wgt id='22'> +4.0164908e+02 </wgt>
<wgt id='23'> +5.0481800e+02 </wgt>
<wgt id='24'> +3.8903990e+02 </wgt>
<wgt id='25'> +4.7848733e+02 </wgt>
<wgt id='26'> +5.5505375e+02 </wgt>
<wgt id='27'> +3.7977783e+02 </wgt>
<wgt id='28'> +4.7848733e+02 </wgt>
<wgt id='29'> +3.6781025e+02 </wgt>
<wgt id='30'> +4.3809444e+02 </wgt>
<wgt id='31'> +4.9029320e+02 </wgt>
<wgt id='32'> +3.6102261e+02 </wgt>
<wgt id='33'> +4.3809443e+02 </wgt>
<wgt id='34'> +3.5074660e+02 </wgt>
<wgt id='35'> +4.2375143e+02 </wgt>
<wgt id='36'> +4.7706073e+02 </wgt>
<wgt id='37'> +3.4219213e+02 </wgt>
<wgt id='38'> +4.2375142e+02 </wgt>
<wgt id='39'> +3.3205428e+02 </wgt>
<wgt id='40'> +4.0164908e+02 </wgt>
<wgt id='41'> +4.5723324e+02 </wgt>
<wgt id='42'> +3.2355852e+02 </wgt>
<wgt id='43'> +4.0164908e+02 </wgt>
<wgt id='44'> +3.1393430e+02 </wgt>
<wgt id='45'> +5.0481800e+02 </wgt>
<wgt id='46'> +5.0018806e+02 </wgt>
<wgt id='47'> +5.2056311e+02 </wgt>
<wgt id='48'> +5.0353750e+02 </wgt>
<wgt id='49'> +5.0439302e+02 </wgt>
<wgt id='50'> +5.7738283e+02 </wgt>
<wgt id='51'> +4.9510334e+02 </wgt>
<wgt id='52'> +5.0062442e+02 </wgt>
<wgt id='53'> +5.1501566e+02 </wgt>
<wgt id='54'> +5.0763442e+02 </wgt>
<wgt id='55'> +4.5063326e+02 </wgt>
<wgt id='56'> +4.7478510e+02 </wgt>
<wgt id='57'> +4.9062025e+02 </wgt>
<wgt id='58'> +5.1263784e+02 </wgt>
<wgt id='59'> +4.9143276e+02 </wgt>
<wgt id='60'> +4.7872277e+02 </wgt>
<wgt id='61'> +5.0261273e+02 </wgt>
<wgt id='62'> +4.9746673e+02 </wgt>
<wgt id='63'> +5.0523121e+02 </wgt>
<wgt id='64'> +5.0459964e+02 </wgt>
<wgt id='65'> +5.9823325e+02 </wgt>
<wgt id='66'> +4.9177595e+02 </wgt>
<wgt id='67'> +5.0944979e+02 </wgt>
<wgt id='68'> +5.3489806e+02 </wgt>
<wgt id='69'> +4.8688325e+02 </wgt>
<wgt id='70'> +4.9719324e+02 </wgt>
<wgt id='71'> +5.1471172e+02 </wgt>
<wgt id='72'> +4.9847977e+02 </wgt>
<wgt id='73'> +5.0054136e+02 </wgt>
<wgt id='74'> +5.1458612e+02 </wgt>
<wgt id='75'> +5.1490229e+02 </wgt>
<wgt id='76'> +4.9069480e+02 </wgt>
<wgt id='77'> +4.8304415e+02 </wgt>
<wgt id='78'> +5.1118519e+02 </wgt>
<wgt id='79'> +4.8070195e+02 </wgt>
<wgt id='80'> +5.0255681e+02 </wgt>
<wgt id='81'> +4.9721874e+02 </wgt>
<wgt id='82'> +5.2212204e+02 </wgt>
<wgt id='83'> +5.1341457e+02 </wgt>
<wgt id='84'> +5.5292676e+02 </wgt>
<wgt id='85'> +5.3222503e+02 </wgt>
<wgt id='86'> +4.9865474e+02 </wgt>
<wgt id='87'> +5.0303244e+02 </wgt>
<wgt id='88'> +5.1268929e+02 </wgt>
<wgt id='89'> +5.1480750e+02 </wgt>
<wgt id='90'> +5.0843600e+02 </wgt>
<wgt id='91'> +5.3944502e+02 </wgt>
<wgt id='92'> +4.7211101e+02 </wgt>
<wgt id='93'> +4.9338476e+02 </wgt>
<wgt id='94'> +5.0568893e+02 </wgt>
<wgt id='95'> +4.8540026e+02 </wgt>
<wgt id='96'> +5.4021909e+02 </wgt>
<wgt id='97'> +5.1590320e+02 </wgt>
<wgt id='98'> +4.7994838e+02 </wgt>
<wgt id='99'> +4.9235997e+02 </wgt>
<wgt id='100'> +5.0961638e+02 </wgt>
<wgt id='101'> +5.2014637e+02 </wgt>
<wgt id='102'> +4.8142906e+02 </wgt>
<wgt id='103'> +5.4477678e+02 </wgt>
<wgt id='104'> +5.0162052e+02 </wgt>
<wgt id='105'> +5.2798756e+02 </wgt>
<wgt id='106'> +4.7161374e+02 </wgt>
<wgt id='107'> +5.0685195e+02 </wgt>
<wgt id='108'> +4.5972044e+02 </wgt>
<wgt id='109'> +4.7860455e+02 </wgt>
<wgt id='110'> +5.0735414e+02 </wgt>
<wgt id='111'> +4.9427351e+02 </wgt>
<wgt id='112'> +4.8622780e+02 </wgt>
<wgt id='113'> +4.6668038e+02 </wgt>
<wgt id='114'> +5.1179956e+02 </wgt>
<wgt id='115'> +5.1559047e+02 </wgt>
<wgt id='116'> +4.9717233e+02 </wgt>
<wgt id='117'> +5.1516420e+02 </wgt>
<wgt id='118'> +5.1112365e+02 </wgt>
<wgt id='119'> +4.8705873e+02 </wgt>
<wgt id='120'> +5.0908456e+02 </wgt>
<wgt id='121'> +4.9260289e+02 </wgt>
<wgt id='122'> +4.9907944e+02 </wgt>
<wgt id='123'> +5.1001864e+02 </wgt>
<wgt id='124'> +5.3056511e+02 </wgt>
<wgt id='125'> +5.3243331e+02 </wgt>
<wgt id='126'> +5.2186662e+02 </wgt>
<wgt id='127'> +5.1756178e+02 </wgt>
<wgt id='128'> +4.7352757e+02 </wgt>
<wgt id='129'> +5.6960093e+02 </wgt>
<wgt id='130'> +5.0812535e+02 </wgt>
<wgt id='131'> +5.4183347e+02 </wgt>
<wgt id='132'> +4.9280359e+02 </wgt>
<wgt id='133'> +4.9575444e+02 </wgt>
<wgt id='134'> +4.7280899e+02 </wgt>
<wgt id='135'> +5.1814597e+02 </wgt>
<wgt id='136'> +4.7836692e+02 </wgt>
<wgt id='137'> +4.7319352e+02 </wgt>
<wgt id='138'> +4.5312467e+02 </wgt>
<wgt id='139'> +5.1170943e+02 </wgt>
<wgt id='140'> +5.4047145e+02 </wgt>
<wgt id='141'> +5.0223799e+02 </wgt>
<wgt id='142'> +5.1579273e+02 </wgt>
<wgt id='143'> +4.9680353e+02 </wgt>
<wgt id='144'> +5.0804532e+02 </wgt>
<wgt id='145'> +5.0589965e+02 </wgt>
</rwgt>
</event>
<event>
 4      1 +5.0481800e+02 2.08745600e+02 7.54677100e-03 1.14256300e-01
       21 -1    0    0  503  502 +0.0000000000e+00 +0.0000000000e+00 +1.9057067741e+01 1.9057067741e+01 0.0000000000e+00 0.0000e+00 1.0000e+00
       21 -1    0    0  501  503 -0.0000000000e+00 -0.0000000000e+00 -2.3288700233e+03 2.3288700233e+03 0.0000000000e+00 0.0000e+00 -1.0000e+00
        6  1    1    2  501    0 -5.1080831406e+01 +1.0505469972e+02 -1.3131798891e+03 1.3296676887e+03 1.7300000000e+02 0.0000e+00 1.0000e+00
       -6  1    1    2    0  502 +5.1080831406e+01 -1.0505469972e+02 -9.9663306640e+02 1.0182594023e+03 1.7300000000e+02 0.0000e+00 1.0000e+00
<mgrwt>
<rscale>  2 0.20874564E+03</rscale>
<asrwt>0</asrwt>
<pdfrwt beam="1">  1       21 0.29318579E-02 0.20874564E+03</pdfrwt>
<pdfrwt beam="2">  1       21 0.35828754E+00 0.20874564E+03</pdfrwt>
<totfact> 0.10074695E+04</totfact>
</mgrwt>
<rwgt>
<wgt id='1'> +7.2134341e+02 </wgt>
<wgt id='2'> +6.7510057e+02 </wgt>
<wgt id='3'> +5.0481800e+02 </wgt>
<wgt id='4'> +7.2134342e+02 </wgt>
<wgt id='5'> +5.0253828e+02 </wgt>
<wgt id='6'> +6.1682849e+02 </wgt>
<wgt id='7'> +5.7642250e+02 </wgt>
<wgt id='8'> +4.3049292e+02 </wgt>
<wgt id='9'> +6.1682849e+02 </wgt>
<wgt id='10'> +4.2861349e+02 </wgt>
<wgt id='11'> +5.2601195e+02 </wgt>
<wgt id='12'> +4.9259420e+02 </wgt>
<wgt id='13'> +3.7108104e+02 </wgt>
<wgt id='14'> +5.2601195e+02 </wgt>
<wgt id='15'> +3.6951152e+02 </wgt>
<wgt id='16'> +5.9035395e+02 </wgt>
<wgt id='17'> +5.5628733e+02 </wgt>
<wgt id='18'> +4.2580574e+02 </wgt>
<wgt id='19'> +5.9035396e+02 </wgt>
<wgt id='20'> +4.2395952e+02 </wgt>
<wgt id='21'> +4.7497595e+02 </wgt>
<wgt id='22'> +3.6311375e+02 </wgt>
<wgt id='23'> +5.0481800e+02 </wgt>
<wgt id='24'> +3.6159389e+02 </wgt>
<wgt id='25'> +4.3049292e+02 </wgt>
<wgt id='26'> +4.0590088e+02 </wgt>
<wgt id='27'> +3.1300080e+02 </wgt>
<wgt id='28'> +4.3049292e+02 </wgt>
<wgt id='29'> +3.1173333e+02 </wgt>
<wgt id='30'> +4.9795391e+02 </wgt>
<wgt id='31'> +4.7034697e+02 </wgt>
<wgt id='32'> +3.6393902e+02 </wgt>
<wgt id='33'> +4.9795392e+02 </wgt>
<wgt id='34'> +3.6242023e+02 </wgt>
<wgt id='35'> +4.2580574e+02 </wgt>
<wgt id='36'> +4.0159731e+02 </wgt>
<wgt id='37'> +3.1035576e+02 </wgt>
<wgt id='38'> +4.2580574e+02 </wgt>
<wgt id='39'> +3.0910720e+02 </wgt>
<wgt id='40'> +3.6311375e+02 </wgt>
<wgt id='41'> +3.4319359e+02 </wgt>
<wgt id='42'> +2.6752388e+02 </wgt>
<wgt id='43'> +3.6311375e+02 </wgt>
<wgt id='44'> +2.6648408e+02 </wgt>
<wgt id='45'> +5.0481800e+02 </wgt>
<wgt id='46'> +5.0840452e+02 </wgt>
<wgt id='47'> +6.2918407e+02 </wgt>
<wgt id='48'> +5.0381286e+02 </wgt>
<wgt id='49'> +4.3175490e+02 </wgt>
<wgt id='50'> +6.2754589e+02 </wgt>
<wgt id='51'> +5.0084740e+02 </wgt>
<wgt id='52'> +3.8969775e+02 </wgt>
<wgt id='53'> +5.8941250e+02 </wgt>
<wgt id='54'> +5.2951792e+02 </wgt>
<wgt id='55'> +6.5257302e+02 </wgt>
<wgt id='56'> +4.8863392e+02 </wgt>
<wgt id='57'> +5.6998043e+02 </wgt>
<wgt id='58'> +4.0693886e+02 </wgt>
<wgt id='59'> +5.5600953e+02 </wgt>
<wgt id='60'> +4.8856117e+02 </wgt>
<wgt id='61'> +3.7288136e+02 </wgt>
<wgt id='62'> +4.2251323e+02 </wgt>
<wgt id='63'> +5.3895331e+02 </wgt>
<wgt id='64'> +5.0855347e+02 </wgt>
<wgt id='65'> +3.5782280e+02 </wgt>
<wgt id='66'> +5.1574019e+02 </wgt>
<wgt id='67'> +4.7683557e+02 </wgt>
<wgt id='68'> +8.2223523e+02 </wgt>
<wgt id='69'> +6.1116629e+02 </wgt>
<wgt id='70'> +7.3723781e+02 </wgt>
<wgt id='71'> +4.1980107e+02 </wgt>
<wgt id='72'> +3.9120063e+02 </wgt>
<wgt id='73'> +4.1442977e+02 </wgt>
<wgt id='74'> +7.2393163e+02 </wgt>
<wgt id='75'> +6.6961810e+02 </wgt>
<wgt id='76'> +4.9650158e+02 </wgt>
<wgt id='77'> +4.1473538e+02 </wgt>
<wgt id='78'> +4.0288392e+02 </wgt>
<wgt id='79'> +5.8904044e+02 </wgt>
<wgt id='80'> +3.4149218e+02 </wgt>
<wgt id='81'> +5.6858246e+02 </wgt>
<wgt id='82'> +4.8109635e+02 </wgt>
<wgt id='83'> +5.0371448e+02 </wgt>
<wgt id='84'> +3.9903370e+02 </wgt>
<wgt id='85'> +4.1049951e+02 </wgt>
<wgt id='86'> +5.5490394e+02 </wgt>
<wgt id='87'> +4.5668450e+02 </wgt>
<wgt id='88'> +5.6495954e+02 </wgt>
<wgt id='89'> +2.7545328e+02 </wgt>
<wgt id='90'> +3.8660657e+02 </wgt>
<wgt id='91'> +3.5017005e+02 </wgt>
<wgt id='92'> +4.6635450e+02 </wgt>
<wgt id='93'> +5.5428430e+02 </wgt>
<wgt id='94'> +4.0425463e+02 </wgt>
<wgt id='95'> +5.2149328e+02 </wgt>
<wgt id='96'> +4.6732136e+02 </wgt>
<wgt id='97'> +4.0802137e+02 </wgt>
<wgt id='98'> +6.6276319e+02 </wgt>
<wgt id='99'> +3.6359623e+02 </wgt>
<wgt id='100'> +2.9950308e+02 </wgt>
<wgt id='101'> +6.4301680e+02 </wgt>
<wgt id='102'> +6.2843803e+02 </wgt>
<wgt id='103'> +4.0799840e+02 </wgt>
<wgt id='104'> +5.7401709e+02 </wgt>
<wgt id='105'> +5.2402970e+02 </wgt>
<wgt id='106'> +5.2547065e+02 </wgt>
<wgt id='107'> +5.4161020e+02 </wgt>
<wgt id='108'> +4.5577189e+02 </wgt>
<wgt id='109'> +5.2176373e+02 </wgt>
<wgt id='110'> +3.5744165e+02 </wgt>
<wgt id='111'> +4.6510394e+02 </wgt>
<wgt id='112'> +5.1762706e+02 </wgt>
<wgt id='113'> +6.6142926e+02 </wgt>
<wgt id='114'> +4.0516598e+02 </wgt>
<wgt id='115'> +4.9111532e+02 </wgt>
<wgt id='116'> +6.0408252e+02 </wgt>
<wgt id='117'> +5.3758274e+02 </wgt>
<wgt id='118'> +4.9941773e+02 </wgt>
<wgt id='119'> +5.3075146e+02 </wgt>
<wgt id='120'> +4.7459559e+02 </wgt>
<wgt id='121'> +4.4678923e+02 </wgt>
<wgt id='122'> +4.5669679e+02 </wgt>
<wgt id='123'> +4.2891940e+02 </wgt>
<wgt id='124'> +5.6952816e+02 </wgt>
<wgt id='125'> +8.0368762e+02 </wgt>
<wgt id='126'> +4.6968090e+02 </wgt>
<wgt id='127'> +4.4811500e+02 </wgt>
<wgt id='128'> +5.0558066e+02 </wgt>
<wgt id='129'> +4.6008018e+02 </wgt>
<wgt id='130'> +4.5211058e+02 </wgt>
<wgt id='131'> +4.1514100e+02 </wgt>
<wgt id='132'> +5.3141745e+02 </wgt>
<wgt id='133'> +5.6119536e+02 </wgt>
<wgt id='134'> +6.0401714e+02 </wgt>
<wgt id='135'> +4.7183986e+02 </wgt>
<wgt id='136'> +6.4919640e+02 </wgt>
<wgt id='137'> +6.1888995e+02 </wgt>
<wgt id='138'> +6.0484291e+02 </wgt>
<wgt id='139'> +5.4179108e+02 </wgt>
<wgt id='140'> +4.7044898e+02 </wgt>
<wgt id='141'> +7.2908287e+02 </wgt>
<wgt id='142'> +2.0421137e+02 </wgt>
<wgt id='143'> +5.2167004e+02 </wgt>
<wgt id='144'> +4.1991707e+02 </wgt>
<wgt id='145'> +4.3530677e+02 </wgt>
</rwgt>
</event>
<event>
 4      1 +5.0481800e+02 2.81348800e+02 7.54677100e-03 1.09495500e-01
        1 -1    0    0  502    0 +0.0000000000e+00 +0.0000000000e+00 +7.4260398813e+02 7.4260398813e+02 0.0000000000e+00 0.0000e+00 -1.0000e+00
       -1 -1    0    0    0  501 -0.0000000000e+00 -0.0000000000e+00 -1.3306104787e+02 1.3306104787e+02 0.0000000000e+00 0.0000e+00 1.0000e+00
        6  1    1    2  502    0 -2.1402136868e+02 +5.8506280268e+01 +5.0004135857e+02 5.7375821681e+02 1.7300000000e+02 0.0000e+00 -1.0000e+00
       -6  1    1    2    0  501 +2.1402136868e+02 -5.8506280268e+01 +1.0950158169e+02 3.0190681919e+02 1.7300000000e+02 0.0000e+00 1.0000e+00
<mgrwt>
<rscale>  2 0.28134877E+03</rscale>
<asrwt>0</asrwt>
<pdfrwt beam="1">  1        1 0.11424676E+00 0.28134877E+03</pdfrwt>
<pdfrwt beam="2">  1       -1 0.20470931E-01 0.28134877E+03</pdfrwt>
<totfact> 0.50338566E+02</totfact>
</mgrwt>
<rwgt>
<wgt id='1'> +6.1415845e+02 </wgt>
<wgt id='2'> +5.2008772e+02 </wgt>
<wgt id='3'> +5.0481800e+02 </wgt>
<wgt id='4'> +6.1415845e+02 </wgt>
<wgt id='5'> +4.9018748e+02 </wgt>
<wgt id='6'> +6.0717483e+02 </wgt>
<wgt id='7'> +5.1257533e+02 </wgt>
<wgt id='8'> +4.9727284e+02 </wgt>
<wgt id='9'> +6.0717483e+02 </wgt>
<wgt id='10'> +4.8262921e+02 </wgt>
<wgt id='11'> +5.9809981e+02 </wgt>
<wgt id='12'> +5.0377620e+02 </wgt>
<wgt id='13'> +4.8855904e+02 </wgt>
<wgt id='14'> +5.9809981e+02 </wgt>
<wgt id='15'> +4.7400907e+02 </wgt>
<wgt id='16'> +5.1062433e+02 </wgt>
<wgt id='17'> +4.4029727e+02 </wgt>
<wgt id='18'> +4.2831136e+02 </wgt>
<wgt id='19'> +5.1062433e+02 </wgt>
<wgt id='20'> +4.1678447e+02 </wgt>
<wgt id='21'> +4.3393741e+02 </wgt>
<wgt id='22'> +4.2190969e+02 </wgt>
<wgt id='23'> +5.0481800e+02 </wgt>
<wgt id='24'> +4.1035801e+02 </wgt>
<wgt id='25'> +4.9727284e+02 </wgt>
<wgt id='26'> +4.2648822e+02 </wgt>
<wgt id='27'> +4.1451650e+02 </wgt>
<wgt id='28'> +4.9727284e+02 </wgt>
<wgt id='29'> +4.0302869e+02 </wgt>
<wgt id='30'> +4.3323773e+02 </wgt>
<wgt id='31'> +3.7755402e+02 </wgt>
<wgt id='32'> +3.6796358e+02 </wgt>
<wgt id='33'> +4.3323773e+02 </wgt>
<wgt id='34'> +3.5871607e+02 </wgt>
<wgt id='35'> +4.2831136e+02 </wgt>
<wgt id='36'> +3.7210045e+02 </wgt>
<wgt id='37'> +3.6246389e+02 </wgt>
<wgt id='38'> +4.2831136e+02 </wgt>
<wgt id='39'> +3.5318497e+02 </wgt>
<wgt id='40'> +4.2190969e+02 </wgt>
<wgt id='41'> +3.6571278e+02 </wgt>
<wgt id='42'> +3.5611237e+02 </wgt>
<wgt id='43'> +4.2190969e+02 </wgt>
<wgt id='44'> +3.4687681e+02 </wgt>
<wgt id='45'> +5.0481800e+02 </wgt>
<wgt id='46'> +5.0630544e+02 </wgt>
<wgt id='47'> +5.0083641e+02 </wgt>
<wgt id='48'> +5.0663604e+02 </wgt>
<wgt id='49'> +4.7513412e+02 </wgt>
<wgt id='50'> +4.3958515e+02 </wgt>
<wgt id='51'> +5.3124856e+02 </wgt>
<wgt id='52'> +5.1367754e+02 </wgt>
<wgt id='53'> +4.9074452e+02 </wgt>
<wgt id='54'> +4.9365383e+02 </wgt>
<wgt id='55'> +5.1738898e+02 </wgt>
<wgt id='56'> +5.8513363e+02 </wgt>
<wgt id='57'> +4.7690228e+02 </wgt>
<wgt id='58'> +4.8012520e+02 </wgt>
<wgt id='59'> +4.5402789e+02 </wgt>
<wgt id='60'> +5.0539181e+02 </wgt>
<wgt id='61'> +5.3421107e+02 </wgt>
<wgt id='62'> +5.4445753e+02 </wgt>
<wgt id='63'> +5.1892729e+02 </wgt>
<wgt id='64'> +5.0168615e+02 </wgt>
<wgt id='65'> +5.0736519e+02 </wgt>
<wgt id='66'> +5.3701904e+02 </wgt>
<wgt id='67'> +5.3793648e+02 </wgt>
<wgt id='68'> +4.1593386e+02 </wgt>
<wgt id='69'> +4.8350246e+02 </wgt>
<wgt id='70'> +4.7323911e+02 </wgt>
<wgt id='71'> +5.5526949e+02 </wgt>
<wgt id='72'> +4.9846675e+02 </wgt>
<wgt id='73'> +5.1711668e+02 </wgt>
<wgt id='74'> +4.3044470e+02 </wgt>
<wgt id='75'> +4.8301803e+02 </wgt>
<wgt id='76'> +5.2294382e+02 </wgt>
<wgt id='77'> +5.3984531e+02 </wgt>
<wgt id='78'> +5.2711919e+02 </wgt>
<wgt id='79'> +5.1838597e+02 </wgt>
<wgt id='80'> +5.7924109e+02 </wgt>
<wgt id='81'> +4.9923283e+02 </wgt>
<wgt id='82'> +4.8099916e+02 </wgt>
<wgt id='83'> +4.7955605e+02 </wgt>
<wgt id='84'> +5.0011782e+02 </wgt>
<wgt id='85'> +5.0397391e+02 </wgt>
<wgt id='86'> +5.0183429e+02 </wgt>
<wgt id='87'> +5.0077044e+02 </wgt>
<wgt id='88'> +5.0796409e+02 </wgt>
<wgt id='89'> +5.1835318e+02 </wgt>
<wgt id='90'> +5.6681838e+02 </wgt>
<wgt id='91'> +5.2406877e+02 </wgt>
<wgt id='92'> +5.4415205e+02 </wgt>
<wgt id='93'> +5.1971239e+02 </wgt>
<wgt id='94'> +5.4260510e+02 </wgt>
<wgt id='95'> +5.0939021e+02 </wgt>
<wgt id='96'> +4.7171693e+02 </wgt>
<wgt id='97'> +5.4289708e+02 </wgt>
<wgt id='98'> +5.2440054e+02 </wgt>
<wgt id='99'> +5.3729076e+02 </wgt>
<wgt id='100'> +5.5186499e+02 </wgt>
<wgt id='101'> +4.2998641e+02 </wgt>
<wgt id='102'> +4.6937428e+02 </wgt>
<wgt id='103'> +4.4822471e+02 </wgt>
<wgt id='104'> +5.1761758e+02 </wgt>
<wgt id='105'> +4.7940631e+02 </wgt>
<wgt id='106'> +5.3551162e+02 </wgt>
<wgt id='107'> +4.8338994e+02 </wgt>
<wgt id='108'> +5.9769409e+02 </wgt>
<wgt id='109'> +5.1837732e+02 </wgt>
<wgt id='110'> +5.2585988e+02 </wgt>
<wgt id='111'> +5.2555328e+02 </wgt>
<wgt id='112'> +5.0071224e+02 </wgt>
<wgt id='113'> +4.9386952e+02 </wgt>
<wgt id='114'> +5.0947738e+02 </wgt>
<wgt id='115'> +5.5881173e+02 </wgt>
<wgt id='116'> +4.6728085e+02 </wgt>
<wgt id='117'> +5.0565389e+02 </wgt>
<wgt id='118'> +4.5074893e+02 </wgt>
<wgt id='119'> +4.7634999e+02 </wgt>
<wgt id='120'> +5.0385681e+02 </wgt>
<wgt id='121'> +4.7694809e+02 </wgt>
<wgt id='122'> +5.1411044e+02 </wgt>
<wgt id='123'> +5.4923861e+02 </wgt>
<wgt id='124'> +4.5004746e+02 </wgt>
<wgt id='125'> +3.9863589e+02 </wgt>
<wgt id='126'> +5.1587367e+02 </wgt>
<wgt id='127'> +5.0145857e+02 </wgt>
<wgt id='128'> +5.7359053e+02 </wgt>
<wgt id='129'> +4.2665441e+02 </wgt>
<wgt id='130'> +5.0931106e+02 </wgt>
<wgt id='131'> +5.0182956e+02 </wgt>
<wgt id='132'> +4.6322105e+02 </wgt>
<wgt id='133'> +4.8761375e+02 </wgt>
<wgt id='134'> +5.0827074e+02 </wgt>
<wgt id='135'> +4.7139069e+02 </wgt>
<wgt id='136'> +4.5365222e+02 </wgt>
<wgt id='137'> +5.1492027e+02 </wgt>
<wgt id='138'> +5.4479043e+02 </wgt>
<wgt id='139'> +4.8888449e+02 </wgt>
<wgt id='140'> +4.7583069e+02 </wgt>
<wgt id='141'> +4.6855483e+02 </wgt>
<wgt id='142'> +6.2377102e+02 </wgt>
<wgt id='143'> +4.9971306e+02 </wgt>
<wgt id='144'> +5.2075979e+02 </wgt>
<wgt id='145'> +5.1779393e+02 </wgt>
</rwgt>
</event>
<event>
 4      1 +5.0481800e+02 2.18206000e+02 7.54677100e-03 1.13522800e-01
       21 -1    0    0  501  502 +0.0000000000e+00 +0.0000000000e+00 +9.2040305771e+02 9.2040305771e+02 0.0000000000e+00 0.0000e+00 -1.0000e+00
       21 -1    0    0  502  503 -0.0000000000e+00 -0.0000000000e+00 -6.0884750677e+01 6.0884750677e+01 0.0000000000e+00 0.0000e+00 1.0000e+00
        6  1    1    2  501    0 +2.7966327745e+01 +1.3001062388e+02 +6.1999773876e+02 6.5727549313e+02 1.7300000000e+02 0.0000e+00 1.0000e+00
       -6  1    1    2    0  503 -2.7966327745e+01 -1.3001062388e+02 +2.3952056828e+02 3.2401231526e+02 1.7300000000e+02 0.0000e+00 1.0000e+00
<mgrwt>
<rscale>  2 0.21820604E+03</rscale>
<asrwt>0</asrwt>
<pdfrwt beam="1">  1       21 0.14160046E+00 0.21820604E+03</pdfrwt>
<pdfrwt beam="2">  1       21 0.93668854E-02 0.21820604E+03</pdfrwt>
<totfact> 0.31162353E+04</totfact>
</mgrwt>
<rwgt>
<wgt id='1'> +6.6167445e+02 </wgt>
<wgt id='2'> +5.8686303e+02 </wgt>
<wgt id='3'> +5.0481800e+02 </wgt>
<wgt id='4'> +6.6167444e+02 </wgt>
<wgt id='5'> +4.8954917e+02 </wgt>
<wgt id='6'> +6.1528424e+02 </wgt>
<wgt id='7'> +5.4109975e+02 </wgt>
<wgt id='8'> +4.6357194e+02 </wgt>
<wgt id='9'> +6.1528423e+02 </wgt>
<wgt id='10'> +4.4963396e+02 </wgt>
<wgt id='11'> +5.6501256e+02 </wgt>
<wgt id='12'> +4.9714202e+02 </wgt>
<wgt id='13'> +4.2624802e+02 </wgt>
<wgt id='14'> +5.6501255e+02 </wgt>
<wgt id='15'> +4.1351162e+02 </wgt>
<wgt id='16'> +5.4287945e+02 </wgt>
<wgt id='17'> +4.8912168e+02 </wgt>
<wgt id='18'> +4.2616668e+02 </wgt>
<wgt id='19'> +5.4287945e+02 </wgt>
<wgt id='20'> +4.1393234e+02 </wgt>
<wgt id='21'> +4.5098022e+02 </wgt>
<wgt id='22'> +3.9134681e+02 </wgt>
<wgt id='23'> +5.0481800e+02 </wgt>
<wgt id='24'> +3.8018253e+02 </wgt>
<wgt id='25'> +4.6357194e+02 </wgt>
<wgt id='26'> +4.1434360e+02 </wgt>
<wgt id='27'> +3.5983801e+02 </wgt>
<wgt id='28'> +4.6357194e+02 </wgt>
<wgt id='29'> +3.4963972e+02 </wgt>
<wgt id='30'> +4.5829811e+02 </wgt>
<wgt id='31'> +4.1537924e+02 </wgt>
<wgt id='32'> +3.6453272e+02 </wgt>
<wgt id='33'> +4.5829811e+02 </wgt>
<wgt id='34'> +3.5457009e+02 </wgt>
<wgt id='35'> +4.2616668e+02 </wgt>
<wgt id='36'> +3.8298818e+02 </wgt>
<wgt id='37'> +3.3474864e+02 </wgt>
<wgt id='38'> +4.2616668e+02 </wgt>
<wgt id='39'> +3.2566036e+02 </wgt>
<wgt id='40'> +3.9134681e+02 </wgt>
<wgt id='41'> +3.5187508e+02 </wgt>
<wgt id='42'> +3.0779677e+02 </wgt>
<wgt id='43'> +3.9134681e+02 </wgt>
<wgt id='44'> +2.9949771e+02 </wgt>
<wgt id='45'> +5.0481800e+02 </wgt>
<wgt id='46'> +5.1851145e+02 </wgt>
<wgt id='47'> +5.1785345e+02 </wgt>
<wgt id='48'> +5.0606437e+02 </wgt>
<wgt id='49'> +4.8381413e+02 </wgt>
<wgt id='50'> +5.9659408e+02 </wgt>
<wgt id='51'> +4.8513147e+02 </wgt>
<wgt id='52'> +4.9428935e+02 </wgt>
<wgt id='53'> +4.9839235e+02 </wgt>
<wgt id='54'> +5.2354270e+02 </wgt>
<wgt id='55'> +5.1539796e+02 </wgt>
<wgt id='56'> +4.6841361e+02 </wgt>
<wgt id='57'> +5.2230642e+02 </wgt>
<wgt id='58'> +4.7883379e+02 </wgt>
<wgt id='59'> +5.3844695e+02 </wgt>
<wgt id='60'> +5.0823980e+02 </wgt>
<wgt id='61'> +4.4460323e+02 </wgt>
<wgt id='62'> +4.8397046e+02 </wgt>
<wgt id='63'> +5.1664788e+02 </wgt>
<wgt id='64'> +5.0012792e+02 </wgt>
<wgt id='65'> +5.1805737e+02 </wgt>
<wgt id='66'> +5.0153809e+02 </wgt>
<wgt id='67'> +5.0691906e+02 </wgt>
<wgt id='68'> +5.7532034e+02 </wgt>
<wgt id='69'> +5.1846278e+02 </wgt>
<wgt id='70'> +5.1248454e+02 </wgt>
<wgt id='71'> +4.9508247e+02 </wgt>
<wgt id='72'> +4.8046322e+02 </wgt>
<wgt id='73'> +4.7494621e+02 </wgt>
<wgt id='74'> +5.4958386e+02 </wgt>
<wgt id='75'> +5.2492718e+02 </wgt>
<wgt id='76'> +5.0907867e+02 </wgt>
<wgt id='77'> +4.9121829e+02 </wgt>
<wgt id='78'> +4.6203321e+02 </wgt>
<wgt id='79'> +5.1537099e+02 </wgt>
<wgt id='80'> +4.7451014e+02 </wgt>
<wgt id='81'> +5.0449321e+02 </wgt>
<wgt id='82'> +4.8844409e+02 </wgt>
<wgt id='83'> +5.0341652e+02 </wgt>
<wgt id='84'> +5.2057979e+02 </wgt>
<wgt id='85'> +4.8928809e+02 </wgt>
<wgt id='86'> +5.1473279e+02 </wgt>
<wgt id='87'> +5.0554470e+02 </wgt>
<wgt id='88'> +4.9850744e+02 </wgt>
<wgt id='89'> +4.8213653e+02 </wgt>
<wgt id='90'> +5.0070487e+02 </wgt>
<wgt id='91'> +4.8542004e+02 </wgt>
<wgt id='92'> +4.6768945e+02 </wgt>
<wgt id='93'> +5.0551456e+02 </wgt>
<wgt id='94'> +4.7866714e+02 </wgt>
<wgt id='95'> +5.1631108e+02 </wgt>
<wgt id='96'> +5.3146315e+02 </wgt>
<wgt id='97'> +4.8214004e+02 </wgt>
<wgt id='98'> +5.1236889e+02 </wgt>
<wgt id='99'> +4.5726550e+02 </wgt>
<wgt id='100'> +4.3539957e+02 </wgt>
<wgt id='101'> +5.7189444e+02 </wgt>
<wgt id='102'> +5.4153539e+02 </wgt>
<wgt id='103'> +5.1922071e+02 </wgt>
<wgt id='104'> +5.2060811e+02 </wgt>
<wgt id='105'> +5.1988236e+02 </wgt>
<wgt id='106'> +4.7317133e+02 </wgt>
<wgt id='107'> +4.8045247e+02 </wgt>
<wgt id='108'> +4.5719301e+02 </wgt>
<wgt id='109'> +4.8753011e+02 </wgt>
<wgt id='110'> +4.8735966e+02 </wgt>
<wgt id='111'> +4.9292705e+02 </wgt>
<wgt id='112'> +4.9796655e+02 </wgt>
<wgt id='113'> +4.9112423e+02 </wgt>
<wgt id='114'> +5.0674302e+02 </wgt>
<wgt id='115'> +4.6926957e+02 </wgt>
<wgt id='116'> +5.3554400e+02 </wgt>
<wgt id='117'> +4.9453178e+02 </wgt>
<wgt id='118'> +5.2762719e+02 </wgt>
<wgt id='119'> +5.1720621e+02 </wgt>
<wgt id='120'> +4.9968602e+02 </wgt>
<wgt id='121'> +5.0096940e+02 </wgt>
<wgt id='122'> +4.9855189e+02 </wgt>
<wgt id='123'> +4.9828425e+02 </wgt>
<wgt id='124'> +5.6490170e+02 </wgt>
<wgt id='125'> +5.8941186e+02 </wgt>
<wgt id='126'> +5.0862590e+02 </wgt>
<wgt id='127'> +5.0428341e+02 </wgt>
<wgt id='128'> +4.6777820e+02 </wgt>
<wgt id='129'> +5.4471090e+02 </wgt>
<wgt id='130'> +4.8950537e+02 </wgt>
<wgt id='131'> +4.9988006e+02 </wgt>
<wgt id='132'> +5.4524477e+02 </wgt>
<wgt id='133'> +5.3298424e+02 </wgt>
<wgt id='134'> +5.0891367e+02 </wgt>
<wgt id='135'> +4.9938426e+02 </wgt>
<wgt id='136'> +5.5703458e+02 </wgt>
<wgt id='137'> +4.9932955e+02 </wgt>
<wgt id='138'> +4.9151716e+02 </wgt>
<wgt id='139'> +5.2032056e+02 </wgt>
<wgt id='140'> +5.0555327e+02 </wgt>
<wgt id='141'> +5.3416677e+02 </wgt>
<wgt id='142'> +4.2894026e+02 </wgt>
<wgt id='143'> +5.1915694e+02 </wgt>
<wgt id='144'> +4.8044490e+02 </wgt>
<wgt id='145'> +4.8588265e+02 </wgt>
</rwgt>
</event>
<event>
 4      1 +5.0481800e+02 1.93515700e+02 7.54677100e-03 1.15532800e-01
       -1 -1    0    0    0  501 -0.0000000000e+00 +0.0000000000e+00 +2.9891775365e+02 2.9891775365e+02 0.0000000000e+00 0.0000e+00 -1.0000e+00
        1 -1    0    0  502    0 +0.0000000000e+00 -0.0000000000e+00 -2.2878894324e+02 2.2878894324e+02 0.0000000000e+00 0.0000e+00 1.0000e+00
        6  1    1    2  502    0 -1.6377130125e+01 +8.5153373395e+01 -1.4240961805e+02 2.4026819745e+02 1.7300000000e+02 0.0000e+00 1.0000e+00
       -6  1    1    2    0  501 +1.6377130125e+01 -8.5153373395e+01 +2.1253842846e+02 2.8743849944e+02 1.7300000000e+02 0.0000e+00 -1.0000e+00
<mgrwt>
<rscale>  2 0.19351565E+03</rscale>
<asrwt>0</asrwt>
<pdfrwt beam="2">  1        1 0.35198299E-01 0.19351565E+03</pdfrwt>
<pdfrwt beam="1">  1       -1 0.45987347E-01 0.19351565E+03</pdfrwt>
<totfact> 0.59490221E+02</totfact>
</mgrwt>
<rwgt>
<wgt id='1'> +6.1715974e+02 </wgt>
<wgt id='2'> +5.8307805e+02 </wgt>
<wgt id='3'> +5.0481800e+02 </wgt>
<wgt id='4'> +6.1715973e+02 </wgt>
<wgt id='5'> +4.6753352e+02 </wgt>
<wgt id='6'> +6.1933747e+02 </wgt>
<wgt id='7'> +5.8421712e+02 </wgt>
<wgt id='8'> +5.0389531e+02 </wgt>
<wgt id='9'> +6.1933747e+02 </wgt>
<wgt id='10'> +4.6577005e+02 </wgt>
<wgt id='11'> +6.1820547e+02 </wgt>
<wgt id='12'> +5.8242204e+02 </wgt>
<wgt id='13'> +5.0089981e+02 </wgt>
<wgt id='14'> +6.1820546e+02 </wgt>
<wgt id='15'> +4.6233246e+02 </wgt>
<wgt id='16'> +5.0304294e+02 </wgt>
<wgt id='17'> +4.8016071e+02 </wgt>
<wgt id='18'> +4.2505987e+02 </wgt>
<wgt id='19'> +5.0304294e+02 </wgt>
<wgt id='20'> +3.9610588e+02 </wgt>
<wgt id='21'> +4.8109872e+02 </wgt>
<wgt id='22'> +4.2428296e+02 </wgt>
<wgt id='23'> +5.0481800e+02 </wgt>
<wgt id='24'> +3.9461182e+02 </wgt>
<wgt id='25'> +5.0389531e+02 </wgt>
<wgt id='26'> +4.7962049e+02 </wgt>
<wgt id='27'> +4.2176073e+02 </wgt>
<wgt id='28'> +5.0389531e+02 </wgt>
<wgt id='29'> +3.9169941e+02 </wgt>
<wgt id='30'> +4.2356526e+02 </wgt>
<wgt id='31'> +4.0588148e+02 </wgt>
<wgt id='32'> +3.6280578e+02 </wgt>
<wgt id='33'> +4.2356526e+02 </wgt>
<wgt id='34'> +3.3988002e+02 </wgt>
<wgt id='35'> +4.2505987e+02 </wgt>
<wgt id='36'> +4.0667438e+02 </wgt>
<wgt id='37'> +3.6214266e+02 </wgt>
<wgt id='38'> +4.2505987e+02 </wgt>
<wgt id='39'> +3.3859804e+02 </wgt>
<wgt id='40'> +4.2428296e+02 </wgt>
<wgt id='41'> +4.0542483e+02 </wgt>
<wgt id='42'> +3.5998983e+02 </wgt>
<wgt id='43'> +4.2428296e+02 </wgt>
<wgt id='44'> +3.3609903e+02 </wgt>
<wgt id='45'> +5.0481800e+02 </wgt>
<wgt id='46'> +5.2357031e+02 </wgt>
<wgt id='47'> +5.0610775e+02 </wgt>
<wgt id='48'> +4.7874360e+02 </wgt>
<wgt id='49'> +4.8632770e+02 </wgt>
<wgt id='50'> +4.4552406e+02 </wgt>
<wgt id='51'> +4.7696237e+02 </wgt>
<wgt id='52'> +5.4398600e+02 </wgt>
<wgt id='53'> +5.2504208e+02 </wgt>
<wgt id='54'> +4.9655643e+02 </wgt>
<wgt id='55'> +4.9365552e+02 </wgt>
<wgt id='56'> +5.4272980e+02 </wgt>
<wgt id='57'> +4.5227474e+02 </wgt>
<wgt id='58'> +5.4873817e+02 </wgt>
<wgt id='59'> +4.4541142e+02 </wgt>
<wgt id='60'> +5.0439071e+02 </wgt>
<wgt id='61'> +5.1157822e+02 </wgt>
<wgt id='62'> +5.3908942e+02 </wgt>
<wgt id='63'> +5.4298735e+02 </wgt>
<wgt id='64'> +4.9945868e+02 </wgt>
<wgt id='65'> +4.7500593e+02 </wgt>
<wgt id='66'> +4.8111145e+02 </wgt>
<wgt id='67'> +5.3942117e+02 </wgt>
<wgt id='68'> +4.4545069e+02 </wgt>
<wgt id='69'> +4.8244225e+02 </wgt>
<wgt id='70'> +5.3954428e+02 </wgt>
<wgt id='71'> +4.9611043e+02 </wgt>
<wgt id='72'> +4.7330245e+02 </wgt>
<wgt id='73'> +5.2742220e+02 </wgt>
<wgt id='74'> +4.7166949e+02 </wgt>
<wgt id='75'> +5.0175431e+02 </wgt>
<wgt id='76'> +5.2074003e+02 </wgt>
<wgt id='77'> +5.2610661e+02 </wgt>
<wgt id='78'> +4.9564184e+02 </wgt>
<wgt id='79'> +5.3260463e+02 </wgt>
<wgt id='80'> +5.3745889e+02 </wgt>
<wgt id='81'> +5.3642787e+02 </wgt>
<wgt id='82'> +4.7735183e+02 </wgt>
<wgt id='83'> +4.6129078e+02 </wgt>
<wgt id='84'> +5.0435777e+02 </wgt>
<wgt id='85'> +4.9796589e+02 </wgt>
<wgt id='86'> +5.4722278e+02 </wgt>
<wgt id='87'> +5.2563067e+02 </wgt>
<wgt id='88'> +4.9034853e+02 </wgt>
<wgt id='89'> +5.7235412e+02 </wgt>
<wgt id='90'> +5.7247435e+02 </wgt>
<wgt id='91'> +4.6129146e+02 </wgt>
<wgt id='92'> +5.0516299e+02 </wgt>
<wgt id='93'> +5.3555036e+02 </wgt>
<wgt id='94'> +5.4652410e+02 </wgt>
<wgt id='95'> +4.9041686e+02 </wgt>
<wgt id='96'> +4.9141345e+02 </wgt>
<wgt id='97'> +5.1337179e+02 </wgt>
<wgt id='98'> +5.1529133e+02 </wgt>
<wgt id='99'> +5.7306236e+02 </wgt>
<wgt id='100'> +4.7581826e+02 </wgt>
<wgt id='101'> +4.5591909e+02 </wgt>
<wgt id='102'> +5.0584868e+02 </wgt>
<wgt id='103'> +4.9136830e+02 </wgt>
<wgt id='104'> +4.5801654e+02 </wgt>
<wgt id='105'> +4.9884817e+02 </wgt>
<wgt id='106'> +5.2304824e+02 </wgt>
<wgt id='107'> +4.8263946e+02 </wgt>
<wgt id='108'> +5.3692162e+02 </wgt>
<wgt id='109'> +4.7814142e+02 </wgt>
<wgt id='110'> +5.5036703e+02 </wgt>
<wgt id='111'> +5.0800229e+02 </wgt>
<wgt id='112'> +4.9150794e+02 </wgt>
<wgt id='113'> +5.2157954e+02 </wgt>
<wgt id='114'> +4.7745670e+02 </wgt>
<wgt id='115'> +4.8851628e+02 </wgt>
<wgt id='116'> +4.6617842e+02 </wgt>
<wgt id='117'> +4.8044342e+02 </wgt>
<wgt id='118'> +4.9056263e+02 </wgt>
<wgt id='119'> +5.2472137e+02 </wgt>
<wgt id='120'> +5.0154174e+02 </wgt>
<wgt id='121'> +4.7511449e+02 </wgt>
<wgt id='122'> +5.0020402e+02 </wgt>
<wgt id='123'> +5.2291003e+02 </wgt>
<wgt id='124'> +4.6823853e+02 </wgt>
<wgt id='125'> +4.4144261e+02 </wgt>
<wgt id='126'> +5.3825818e+02 </wgt>
<wgt id='127'> +5.2248832e+02 </wgt>
<wgt id='128'> +5.1299832e+02 </wgt>
<wgt id='129'> +4.5749020e+02 </wgt>
<wgt id='130'> +4.7515929e+02 </wgt>
<wgt id='131'> +5.2283851e+02 </wgt>
<wgt id='132'> +4.8671214e+02 </wgt>
<wgt id='133'> +5.7992073e+02 </wgt>
<wgt id='134'> +4.7595208e+02 </wgt>
<wgt id='135'> +4.4714777e+02 </wgt>
<wgt id='136'> +5.3032232e+02 </wgt>
<wgt id='137'> +5.1051821e+02 </wgt>
<wgt id='138'> +5.1361277e+02 </wgt>
<wgt id='139'> +5.6001203e+02 </wgt>
<wgt id='140'> +4.8081569e+02 </wgt>
<wgt id='141'> +5.1020579e+02 </wgt>
<wgt id='142'> +5.4281068e+02 </wgt>
<wgt id='143'> +5.1507754e+02 </wgt>
<wgt id='144'> +5.0883603e+02 </wgt>
<wgt id='145'> +5.2877916e+02 </wgt>
</rwgt>
</event>
<event>
 4      1 +5.0481800e+02 1.99601600e+02 7.54677100e-03 1.15007600e-01
       21 -1    0    0  503  502 +0.0000000000e+00 +0.0000000000e+00 +1.2969305437e+03 1.2969305437e+03 0.0000000000e+00 0.0000e+00 -1.0000e+00
       21 -1    0    0  501  503 -0.0000000000e+00 -0.0000000000e+00 -3.1517880431e+01 3.1517880431e+01 0.0000000000e+00 0.0000e+00 1.0000e+00
        6  1    1    2  501    0 +6.7603159231e+01 -7.3086234513e+01 +5.2697629275e+02 5.6351113381e+02 1.7300000000e+02 0.0000e+00 1.0000e+00
       -6  1    1    2    0  502 -6.7603159231e+01 +7.3086234513e+01 +7.3843637056e+02 7.6493729036e+02 1.7300000000e+02 0.0000e+00 -1.0000e+00
<mgrwt>
<rscale>  2 0.19960157E+03</rscale>
<asrwt>0</asrwt>
<pdfrwt beam="1">  1       21 0.19952773E+00 0.19960157E+03</pdfrwt>
<pdfrwt beam="2">  1       21 0.48489057E-02 0.19960157E+03</pdfrwt>
<totfact> 0.38128563E+04</totfact>
</mgrwt>
<rwgt>
<wgt id='1'> +6.7038524e+02 </wgt>
<wgt id='2'> +6.6039378e+02 </wgt>
<wgt id='3'> +5.0481800e+02 </wgt>
<wgt id='4'> +6.7038524e+02 </wgt>
<wgt id='5'> +5.0225852e+02 </wgt>
<wgt id='6'> +6.1835546e+02 </wgt>
<wgt id='7'> +6.0854185e+02 </wgt>
<wgt id='8'> +4.5889407e+02 </wgt>
<wgt id='9'> +6.1835546e+02 </wgt>
<wgt id='10'> +4.5656824e+02 </wgt>
<wgt id='11'> +5.6210288e+02 </wgt>
<wgt id='12'> +5.5320228e+02 </wgt>
<wgt id='13'> +4.1798388e+02 </wgt>
<wgt id='14'> +5.6210289e+02 </wgt>
<wgt id='15'> +4.1588345e+02 </wgt>
<wgt id='16'> +5.4729449e+02 </wgt>
<wgt id='17'> +5.4018955e+02 </wgt>
<wgt id='18'> +4.2539468e+02 </wgt>
<wgt id='19'> +5.4729449e+02 </wgt>
<wgt id='20'> +4.2336246e+02 </wgt>
<wgt id='21'> +4.9777566e+02 </wgt>
<wgt id='22'> +3.8669599e+02 </wgt>
<wgt id='23'> +5.0481800e+02 </wgt>
<wgt id='24'> +3.8484932e+02 </wgt>
<wgt id='25'> +4.5889407e+02 </wgt>
<wgt id='26'> +4.5250894e+02 </wgt>
<wgt id='27'> +3.5222222e+02 </wgt>
<wgt id='28'> +4.5889407e+02 </wgt>
<wgt id='29'> +3.5055541e+02 </wgt>
<wgt id='30'> +4.6118832e+02 </wgt>
<wgt id='31'> +4.5555550e+02 </wgt>
<wgt id='32'> +3.6329486e+02 </wgt>
<wgt id='33'> +4.6118832e+02 </wgt>
<wgt id='34'> +3.6164301e+02 </wgt>
<wgt id='35'> +4.2539468e+02 </wgt>
<wgt id='36'> +4.1978679e+02 </wgt>
<wgt id='37'> +3.3024547e+02 </wgt>
<wgt id='38'> +4.2539468e+02 </wgt>
<wgt id='39'> +3.2874447e+02 </wgt>
<wgt id='40'> +3.8669599e+02 </wgt>
<wgt id='41'> +3.8161222e+02 </wgt>
<wgt id='42'> +3.0080423e+02 </wgt>
<wgt id='43'> +3.8669599e+02 </wgt>
<wgt id='44'> +2.9945006e+02 </wgt>
<wgt id='45'> +5.0481800e+02 </wgt>
<wgt id='46'> +5.1807975e+02 </wgt>
<wgt id='47'> +5.2285500e+02 </wgt>
<wgt id='48'> +5.0325356e+02 </wgt>
<wgt id='49'> +4.6578855e+02 </wgt>
<wgt id='50'> +5.8481964e+02 </wgt>
<wgt id='51'> +4.7552234e+02 </wgt>
<wgt id='52'> +4.7050462e+02 </wgt>
<wgt id='53'> +5.0740110e+02 </wgt>
<wgt id='54'> +5.3610201e+02 </wgt>
<wgt id='55'> +5.7015594e+02 </wgt>
<wgt id='56'> +4.8588959e+02 </wgt>
<wgt id='57'> +5.3760898e+02 </wgt>
<wgt id='58'> +4.5852222e+02 </wgt>
<wgt id='59'> +5.4907154e+02 </wgt>
<wgt id='60'> +5.0678069e+02 </wgt>
<wgt id='61'> +4.4051858e+02 </wgt>
<wgt id='62'> +4.6466332e+02 </wgt>
<wgt id='63'> +5.3298770e+02 </wgt>
<wgt id='64'> +5.0684057e+02 </wgt>
<wgt id='65'> +4.5620316e+02 </wgt>
<wgt id='66'> +5.1164407e+02 </wgt>
<wgt id='67'> +5.0787223e+02 </wgt>
<wgt id='68'> +6.1341371e+02 </wgt>
<wgt id='69'> +5.4540045e+02 </wgt>
<wgt id='70'> +5.4730642e+02 </wgt>
<wgt id='71'> +4.6852838e+02 </wgt>
<wgt id='72'> +4.6385583e+02 </wgt>
<wgt id='73'> +4.5821569e+02 </wgt>
<wgt id='74'> +5.8023968e+02 </wgt>
<wgt id='75'> +5.5074734e+02 </wgt>
<wgt id='76'> +5.1962451e+02 </wgt>
<wgt id='77'> +4.7718783e+02 </wgt>
<wgt id='78'> +4.3533851e+02 </wgt>
<wgt id='79'> +5.4297997e+02 </wgt>
<wgt id='80'> +4.4696008e+02 </wgt>
<wgt id='81'> +5.2482872e+02 </wgt>
<wgt id='82'> +4.9571440e+02 </wgt>
<wgt id='83'> +4.9617755e+02 </wgt>
<wgt id='84'> +4.8926167e+02 </wgt>
<wgt id='85'> +4.5550016e+02 </wgt>
<wgt id='86'> +5.3041195e+02 </wgt>
<wgt id='87'> +4.9756326e+02 </wgt>
<wgt id='88'> +4.9159760e+02 </wgt>
<wgt id='89'> +4.2836523e+02 </wgt>
<wgt id='90'> +4.6972733e+02 </wgt>
<wgt id='91'> +4.3900716e+02 </wgt>
<wgt id='92'> +4.7615408e+02 </wgt>
<wgt id='93'> +5.1139010e+02 </wgt>
<wgt id='94'> +4.6395964e+02 </wgt>
<wgt id='95'> +5.3148777e+02 </wgt>
<wgt id='96'> +5.2588121e+02 </wgt>
<wgt id='97'> +4.5705179e+02 </wgt>
<wgt id='98'> +5.4496025e+02 </wgt>
<wgt id='99'> +4.2524151e+02 </wgt>
<wgt id='100'> +3.8719814e+02 </wgt>
<wgt id='101'> +5.8656768e+02 </wgt>
<wgt id='102'> +5.6724103e+02 </wgt>
<wgt id='103'> +4.8008530e+02 </wgt>
<wgt id='104'> +5.3959117e+02 </wgt>
<wgt id='105'> +5.1681325e+02 </wgt>
<wgt id='106'> +4.9433042e+02 </wgt>
<wgt id='107'> +4.9110334e+02 </wgt>
<wgt id='108'> +4.7492842e+02 </wgt>
<wgt id='109'> +5.0151696e+02 </wgt>
<wgt id='110'> +4.6415421e+02 </wgt>
<wgt id='111'> +4.9039022e+02 </wgt>
<wgt id='112'> +5.2699545e+02 </wgt>
<wgt id='113'> +5.3511318e+02 </wgt>
<wgt id='114'> +5.2434034e+02 </wgt>
<wgt id='115'> +4.6276412e+02 </wgt>
<wgt id='116'> +5.5322677e+02 </wgt>
<wgt id='117'> +4.9436465e+02 </wgt>
<wgt id='118'> +5.1845877e+02 </wgt>
<wgt id='119'> +5.5525246e+02 </wgt>
<wgt id='120'> +5.0442461e+02 </wgt>
<wgt id='121'> +4.9728013e+02 </wgt>
<wgt id='122'> +4.9382178e+02 </wgt>
<wgt id='123'> +4.7965044e+02 </wgt>
<wgt id='124'> +5.6667307e+02 </wgt>
<wgt id='125'> +6.3289297e+02 </wgt>
<wgt id='126'> +4.9331083e+02 </wgt>
<wgt id='127'> +4.8183105e+02 </wgt>
<wgt id='128'> +4.8783551e+02 </wgt>
<wgt id='129'> +5.1201556e+02 </wgt>
<wgt id='130'> +4.9265440e+02 </wgt>
<wgt id='131'> +4.6316639e+02 </wgt>
<wgt id='132'> +5.5278093e+02 </wgt>
<wgt id='133'> +5.5064685e+02 </wgt>
<wgt id='134'> +5.3304303e+02 </wgt>
<wgt id='135'> +4.8247170e+02 </wgt>
<wgt id='136'> +5.9686758e+02 </wgt>
<wgt id='137'> +5.3090204e+02 </wgt>
<wgt id='138'> +5.1655257e+02 </wgt>
<wgt id='139'> +5.2069953e+02 </wgt>
<wgt id='140'> +4.9163695e+02 </wgt>
<wgt id='141'> +5.7403416e+02 </wgt>
<wgt id='142'> +3.5438373e+02 </wgt>
<wgt id='143'> +5.1806905e+02 </wgt>
<wgt id='144'> +4.5961601e+02 </wgt>
<wgt id='145'> +4.6415213e+02 </wgt>
</rwgt>
</event>
<event>
 4      1 +5.0481800e+02 1.77291300e+02 7.54677100e-03 1.17045100e-01
       21 -1    0    0  503  502 +0.0000000000e+00 +0.0000000000e+00 +5.8428318525e+02 5.8428318525e+02 0.0000000000e+00 0.0000e+00 1.0000e+00
       21 -1    0    0  501  503 -0.0000000000e+00 -0.0000000000e+00 -5.3799573782e+01 5.3799573782e+01 0.0000000000e+00 0.0000e+00 1.0000e+00
        6  1    1    2  501    0 -2.3556842003e+01 -3.0793918898e+01 +2.6269945314e+02 3.1692774086e+02 1.7300000000e+02 0.0000e+00 1.0000e+00
       -6  1    1    2    0  502 +2.3556842003e+01 +3.0793918898e+01 +2.6778415833e+02 3.2115501817e+02 1.7300000000e+02 0.0000e+00 1.0000e+00
<mgrwt>
<rscale>  2 0.17729126E+03</rscale>
<asrwt>0</asrwt>
<pdfrwt beam="1">  1       21 0.89889716E-01 0.17729126E+03</pdfrwt>
<pdfrwt beam="2">  1       21 0.82768579E-02 0.17729126E+03</pdfrwt>
<totfact> 0.11985213E+05</totfact>
</mgrwt>
<rwgt>
<wgt id='1'> +6.4519749e+02 </wgt>
<wgt id='2'> +8.2354345e+02 </wgt>
<wgt id='3'> +5.0481800e+02 </wgt>
<wgt id='4'> +6.4519749e+02 </wgt>
<wgt id='5'> +5.0481250e+02 </wgt>
<wgt id='6'> +6.2189164e+02 </wgt>
<wgt id='7'> +8.0215143e+02 </wgt>
<wgt id='8'> +4.7680779e+02 </wgt>
<wgt id='9'> +6.2189164e+02 </wgt>
<wgt id='10'> +4.7680238e+02 </wgt>
<wgt id='11'> +5.8738551e+02 </wgt>
<wgt id='12'> +7.7236761e+02 </wgt>
<wgt id='13'> +4.4933421e+02 </wgt>
<wgt id='14'> +5.8738551e+02 </wgt>
<wgt id='15'> +4.4932909e+02 </wgt>
<wgt id='16'> +5.2373643e+02 </wgt>
<wgt id='17'> +6.5274095e+02 </wgt>
<wgt id='18'> +4.2394215e+02 </wgt>
<wgt id='19'> +5.2373643e+02 </wgt>
<wgt id='20'> +4.2393796e+02 </wgt>
<wgt id='21'> +6.3578562e+02 </wgt>
<wgt id='22'> +4.0041940e+02 </wgt>
<wgt id='23'> +5.0481800e+02 </wgt>
<wgt id='24'> +4.0041526e+02 </wgt>
<wgt id='25'> +4.7680779e+02 </wgt>
<wgt id='26'> +6.1217896e+02 </wgt>
<wgt id='27'> +3.7734730e+02 </wgt>
<wgt id='28'> +4.7680779e+02 </wgt>
<wgt id='29'> +3.7734339e+02 </wgt>
<wgt id='30'> +4.3982969e+02 </wgt>
<wgt id='31'> +5.3087696e+02 </wgt>
<wgt id='32'> +3.6127513e+02 </wgt>
<wgt id='33'> +4.3982969e+02 </wgt>
<wgt id='34'> +3.6127178e+02 </wgt>
<wgt id='35'> +4.2394214e+02 </wgt>
<wgt id='36'> +5.1708712e+02 </wgt>
<wgt id='37'> +3.4122951e+02 </wgt>
<wgt id='38'> +4.2394215e+02 </wgt>
<wgt id='39'> +3.4122619e+02 </wgt>
<wgt id='40'> +4.0041939e+02 </wgt>
<wgt id='41'> +4.9788772e+02 </wgt>
<wgt id='42'> +3.2156792e+02 </wgt>
<wgt id='43'> +4.0041940e+02 </wgt>
<wgt id='44'> +3.2156478e+02 </wgt>
<wgt id='45'> +5.0481800e+02 </wgt>
<wgt id='46'> +5.1156363e+02 </wgt>
<wgt id='47'> +5.1719078e+02 </wgt>
<wgt id='48'> +5.0644092e+02 </wgt>
<wgt id='49'> +4.9899456e+02 </wgt>
<wgt id='50'> +5.8450910e+02 </wgt>
<wgt id='51'> +4.9361461e+02 </wgt>
<wgt id='52'> +5.0424487e+02 </wgt>
<wgt id='53'> +5.0055319e+02 </wgt>
<wgt id='54'> +5.1134929e+02 </wgt>
<wgt id='55'> +4.7754458e+02 </wgt>
<wgt id='56'> +4.6744120e+02 </wgt>
<wgt id='57'> +5.0504557e+02 </wgt>
<wgt id='58'> +5.0058914e+02 </wgt>
<wgt id='59'> +5.1818028e+02 </wgt>
<wgt id='60'> +5.0269084e+02 </wgt>
<wgt id='61'> +4.5584199e+02 </wgt>
<wgt id='62'> +4.9589113e+02 </wgt>
<wgt id='63'> +5.0693928e+02 </wgt>
<wgt id='64'> +4.9823328e+02 </wgt>
<wgt id='65'> +5.5732110e+02 </wgt>
<wgt id='66'> +4.9547769e+02 </wgt>
<wgt id='67'> +5.0784705e+02 </wgt>
<wgt id='68'> +5.4943372e+02 </wgt>
<wgt id='69'> +4.9774950e+02 </wgt>
<wgt id='70'> +4.9946414e+02 </wgt>
<wgt id='71'> +5.1008320e+02 </wgt>
<wgt id='72'> +4.9292500e+02 </wgt>
<wgt id='73'> +4.9339286e+02 </wgt>
<wgt id='74'> +5.2808407e+02 </wgt>
<wgt id='75'> +5.1451280e+02 </wgt>
<wgt id='76'> +4.9844530e+02 </wgt>
<wgt id='77'> +4.9407857e+02 </wgt>
<wgt id='78'> +4.8885764e+02 </wgt>
<wgt id='79'> +4.9719514e+02 </wgt>
<wgt id='80'> +4.9383097e+02 </wgt>
<wgt id='81'> +4.9726307e+02 </wgt>
<wgt id='82'> +5.0187423e+02 </wgt>
<wgt id='83'> +5.0816612e+02 </wgt>
<wgt id='84'> +5.3779024e+02 </wgt>
<wgt id='85'> +5.1540244e+02 </wgt>
<wgt id='86'> +5.0454521e+02 </wgt>
<wgt id='87'> +5.0718056e+02 </wgt>
<wgt id='88'> +5.0515429e+02 </wgt>
<wgt id='89'> +5.1143627e+02 </wgt>
<wgt id='90'> +5.1365936e+02 </wgt>
<wgt id='91'> +5.1909633e+02 </wgt>
<wgt id='92'> +4.6959709e+02 </wgt>
<wgt id='93'> +5.0098045e+02 </wgt>
<wgt id='94'> +4.9527664e+02 </wgt>
<wgt id='95'> +4.9835439e+02 </wgt>
<wgt id='96'> +5.3492301e+02 </wgt>
<wgt id='97'> +5.0218113e+02 </wgt>
<wgt id='98'> +4.9202333e+02 </wgt>
<wgt id='99'> +4.8365111e+02 </wgt>
<wgt id='100'> +4.8150617e+02 </wgt>
<wgt id='101'> +5.4633596e+02 </wgt>
<wgt id='102'> +5.1060285e+02 </wgt>
<wgt id='103'> +5.3990535e+02 </wgt>
<wgt id='104'> +5.0578578e+02 </wgt>
<wgt id='105'> +5.2262078e+02 </wgt>
<wgt id='106'> +4.6830137e+02 </wgt>
<wgt id='107'> +4.8925489e+02 </wgt>
<wgt id='108'> +4.5360559e+02 </wgt>
<wgt id='109'> +4.7987555e+02 </wgt>
<wgt id='110'> +5.0315654e+02 </wgt>
<wgt id='111'> +4.9282605e+02 </wgt>
<wgt id='112'> +4.8208070e+02 </wgt>
<wgt id='113'> +4.7229948e+02 </wgt>
<wgt id='114'> +4.9904672e+02 </wgt>
<wgt id='115'> +4.8386970e+02 </wgt>
<wgt id='116'> +5.1483544e+02 </wgt>
<wgt id='117'> +5.0104094e+02 </wgt>
<wgt id='118'> +5.2315966e+02 </wgt>
<wgt id='119'> +4.9465891e+02 </wgt>
<wgt id='120'> +4.9385165e+02 </wgt>
<wgt id='121'> +4.9768496e+02 </wgt>
<wgt id='122'> +5.0009364e+02 </wgt>
<wgt id='123'> +5.0595288e+02 </wgt>
<wgt id='124'> +5.4837437e+02 </wgt>
<wgt id='125'> +5.5342245e+02 </wgt>
<wgt id='126'> +5.1804441e+02 </wgt>
<wgt id='127'> +5.1611349e+02 </wgt>
<wgt id='128'> +4.6300142e+02 </wgt>
<wgt id='129'> +5.6117933e+02 </wgt>
<wgt id='130'> +4.9824462e+02 </wgt>
<wgt id='131'> +5.2645907e+02 </wgt>
<wgt id='132'> +5.2409338e+02 </wgt>
<wgt id='133'> +5.1343522e+02 </wgt>
<wgt id='134'> +4.9038419e+02 </wgt>
<wgt id='135'> +5.1227280e+02 </wgt>
<wgt id='136'> +5.1490064e+02 </wgt>
<wgt id='137'> +4.8201842e+02 </wgt>
<wgt id='138'> +4.6908427e+02 </wgt>
<wgt id='139'> +5.1808852e+02 </wgt>
<wgt id='140'> +5.2188836e+02 </wgt>
<wgt id='141'> +5.0987618e+02 </wgt>
<wgt id='142'> +4.8416023e+02 </wgt>
<wgt id='143'> +5.1279065e+02 </wgt>
<wgt id='144'> +4.9933597e+02 </wgt>
<wgt id='145'> +5.0154487e+02 </wgt>
</rwgt>
</event>
<event>
 4      1 +5.0481800e+02 2.20782000e+02 7.54677100e-03 1.13330100e-01
       21 -1    0    0  501  502 +0.0000000000e+00 +0.0000000000e+00 +6.2744909748e+02 6.2744909748e+02 0.0000000000e+00 0.0000e+00 -1.0000e+00
       21 -1    0    0  502  503 -0.0000000000e+00 -0.0000000000e+00 -2.8219651097e+02 2.8219651097e+02 0.0000000000e+00 0.0000e+00 -1.0000e+00
        6  1    1    2  501    0 +1.8801495270e+01 +1.3587573100e+02 +5.5981532312e+02 6.0177895153e+02 1.7300000000e+02 0.0000e+00 -1.0000e+00
       -6  1    1    2    0  503 -1.8801495270e+01 -1.3587573100e+02 -2.1456273662e+02 3.0786665692e+02 1.7300000000e+02 0.0000e+00 -1.0000e+00
<mgrwt>
<rscale>  2 0.22078204E+03</rscale>
<asrwt>0</asrwt>
<pdfrwt beam="1">  1       21 0.96530630E-01 0.22078204E+03</pdfrwt>
<pdfrwt beam="2">  1       21 0.43414848E-01 0.22078204E+03</pdfrwt>
<totfact> 0.44523782E+03</totfact>
</mgrwt>
<rwgt>
<wgt id='1'> +6.8027595e+02 </wgt>
<wgt id='2'> +5.8702396e+02 </wgt>
<wgt id='3'> +5.0481800e+02 </wgt>
<wgt id='4'> +6.8027595e+02 </wgt>
<wgt id='5'> +3.8932711e+02 </wgt>
<wgt id='6'> +6.1488231e+02 </wgt>
<wgt id='7'> +5.2673889e+02 </wgt>
<wgt id='8'> +4.5249926e+02 </wgt>
<wgt id='9'> +6.1488230e+02 </wgt>
<wgt id='10'> +3.5033572e+02 </wgt>
<wgt id='11'> +5.5115664e+02 </wgt>
<wgt id='12'> +4.7311184e+02 </wgt>
<wgt id='13'> +4.0729878e+02 </wgt>
<wgt id='14'> +5.5115663e+02 </wgt>
<wgt id='15'> +3.1656649e+02 </wgt>
<wgt id='16'> +5.5850614e+02 </wgt>
<wgt id='17'> +4.9034752e+02 </wgt>
<wgt id='18'> +4.2625980e+02 </wgt>
<wgt id='19'> +5.5850614e+02 </wgt>
<wgt id='20'> +3.3280714e+02 </wgt>
<wgt id='21'> +4.3999075e+02 </wgt>
<wgt id='22'> +3.8208274e+02 </wgt>
<wgt id='23'> +5.0481800e+02 </wgt>
<wgt id='24'> +2.9947626e+02 </wgt>
<wgt id='25'> +4.5249926e+02 </wgt>
<wgt id='26'> +3.9519549e+02 </wgt>
<wgt id='27'> +3.4391622e+02 </wgt>
<wgt id='28'> +4.5249926e+02 </wgt>
<wgt id='29'> +2.7060943e+02 </wgt>
<wgt id='30'> +4.7159317e+02 </wgt>
<wgt id='31'> +4.1678614e+02 </wgt>
<wgt id='32'> +3.6468719e+02 </wgt>
<wgt id='33'> +4.7159316e+02 </wgt>
<wgt id='34'> +2.8775646e+02 </wgt>
<wgt id='35'> +4.2625980e+02 </wgt>
<wgt id='36'> +3.7398384e+02 </wgt>
<wgt id='37'> +3.2689145e+02 </wgt>
<wgt id='38'> +4.2625980e+02 </wgt>
<wgt id='39'> +2.5893744e+02 </wgt>
<wgt id='40'> +3.8208274e+02 </wgt>
<wgt id='41'> +3.3590871e+02 </wgt>
<wgt id='42'> +2.9423802e+02 </wgt>
<wgt id='43'> +3.8208274e+02 </wgt>
<wgt id='44'> +2.3397819e+02 </wgt>
<wgt id='45'> +5.0481800e+02 </wgt>
<wgt id='46'> +5.2393424e+02 </wgt>
<wgt id='47'> +5.2940397e+02 </wgt>
<wgt id='48'> +5.1487148e+02 </wgt>
<wgt id='49'> +4.9626965e+02 </wgt>
<wgt id='50'> +6.3735504e+02 </wgt>
<wgt id='51'> +4.9174080e+02 </wgt>
<wgt id='52'> +5.0435099e+02 </wgt>
<wgt id='53'> +4.9477999e+02 </wgt>
<wgt id='54'> +5.1319078e+02 </wgt>
<wgt id='55'> +4.6685487e+02 </wgt>
<wgt id='56'> +4.5011685e+02 </wgt>
<wgt id='57'> +5.0207613e+02 </wgt>
<wgt id='58'> +4.8571864e+02 </wgt>
<wgt id='59'> +5.2787551e+02 </wgt>
<wgt id='60'> +5.0605621e+02 </wgt>
<wgt id='61'> +4.3549988e+02 </wgt>
<wgt id='62'> +4.9654790e+02 </wgt>
<wgt id='63'> +5.0749468e+02 </wgt>
<wgt id='64'> +4.8704421e+02 </wgt>
<wgt id='65'> +5.7344739e+02 </wgt>
<wgt id='66'> +4.9735613e+02 </wgt>
<wgt id='67'> +5.0811082e+02 </wgt>
<wgt id='68'> +5.6946166e+02 </wgt>
<wgt id='69'> +5.1701259e+02 </wgt>
<wgt id='70'> +4.9631210e+02 </wgt>
<wgt id='71'> +5.0902390e+02 </wgt>
<wgt id='72'> +4.6437158e+02 </wgt>
<wgt id='73'> +4.8352358e+02 </wgt>
<wgt id='74'> +5.4513449e+02 </wgt>
<wgt id='75'> +5.2158538e+02 </wgt>
<wgt id='76'> +4.9267515e+02 </wgt>
<wgt id='77'> +4.9709631e+02 </wgt>
<wgt id='78'> +4.7516178e+02 </wgt>
<wgt id='79'> +5.0151463e+02 </wgt>
<wgt id='80'> +4.8698376e+02 </wgt>
<wgt id='81'> +4.9101359e+02 </wgt>
<wgt id='82'> +4.9703054e+02 </wgt>
<wgt id='83'> +5.1900646e+02 </wgt>
<wgt id='84'> +5.5376858e+02 </wgt>
<wgt id='85'> +5.1853133e+02 </wgt>
<wgt id='86'> +5.1400010e+02 </wgt>
<wgt id='87'> +5.1087459e+02 </wgt>
<wgt id='88'> +5.1318405e+02 </wgt>
<wgt id='89'> +5.1495478e+02 </wgt>
<wgt id='90'> +5.1532255e+02 </wgt>
<wgt id='91'> +5.1792474e+02 </wgt>
<wgt id='92'> +4.3894645e+02 </wgt>
<wgt id='93'> +5.0671768e+02 </wgt>
<wgt id='94'> +4.8399470e+02 </wgt>
<wgt id='95'> +4.8931101e+02 </wgt>
<wgt id='96'> +5.5976591e+02 </wgt>
<wgt id='97'> +4.9498672e+02 </wgt>
<wgt id='98'> +4.9370214e+02 </wgt>
<wgt id='99'> +4.7334592e+02 </wgt>
<wgt id='100'> +4.5613049e+02 </wgt>
<wgt id='101'> +5.7641743e+02 </wgt>
<wgt id='102'> +5.3240395e+02 </wgt>
<wgt id='103'> +5.5413324e+02 </wgt>
<wgt id='104'> +5.1629654e+02 </wgt>
<wgt id='105'> +5.1481550e+02 </wgt>
<wgt id='106'> +4.4209330e+02 </wgt>
<wgt id='107'> +4.6750814e+02 </wgt>
<wgt id='108'> +4.2841567e+02 </wgt>
<wgt id='109'> +4.6337729e+02 </wgt>
<wgt id='110'> +4.9580996e+02 </wgt>
<wgt id='111'> +4.8405418e+02 </wgt>
<wgt id='112'> +4.7022471e+02 </wgt>
<wgt id='113'> +4.5785390e+02 </wgt>
<wgt id='114'> +4.8101479e+02 </wgt>
<wgt id='115'> +4.6906823e+02 </wgt>
<wgt id='116'> +5.3642754e+02 </wgt>
<wgt id='117'> +4.9678633e+02 </wgt>
<wgt id='118'> +5.4193233e+02 </wgt>
<wgt id='119'> +4.8634101e+02 </wgt>
<wgt id='120'> +4.8674020e+02 </wgt>
<wgt id='121'> +4.8741328e+02 </wgt>
<wgt id='122'> +4.9597364e+02 </wgt>
<wgt id='123'> +5.1325178e+02 </wgt>
<wgt id='124'> +5.7575564e+02 </wgt>
<wgt id='125'> +5.8024692e+02 </wgt>
<wgt id='126'> +5.2862960e+02 </wgt>
<wgt id='127'> +5.2351653e+02 </wgt>
<wgt id='128'> +4.5178511e+02 </wgt>
<wgt id='129'> +5.7469291e+02 </wgt>
<wgt id='130'> +5.0717675e+02 </wgt>
<wgt id='131'> +5.2846558e+02 </wgt>
<wgt id='132'> +5.3270108e+02 </wgt>
<wgt id='133'> +5.2761802e+02 </wgt>
<wgt id='134'> +4.8806071e+02 </wgt>
<wgt id='135'> +5.1263645e+02 </wgt>
<wgt id='136'> +5.2134670e+02 </wgt>
<wgt id='137'> +4.8694642e+02 </wgt>
<wgt id='138'> +4.8495984e+02 </wgt>
<wgt id='139'> +5.2528622e+02 </wgt>
<wgt id='140'> +5.1813362e+02 </wgt>
<wgt id='141'> +5.1764176e+02 </wgt>
<wgt id='142'> +4.6612950e+02 </wgt>
<wgt id='143'> +5.1599252e+02 </wgt>
<wgt id='144'> +4.8614497e+02 </wgt>
<wgt id='145'> +5.0085856e+02 </wgt>
</rwgt>
</event>
<event>
 4      1 +5.0481800e+02 1.76795000e+02 7.54677100e-03 1.17094100e-01
       21 -1    0    0  501  502 +0.0000000000e+00 +0.0000000000e+00 +1.0117730880e+02 1.0117730880e+02 0.0000000000e+00 0.0000e+00 -1.0000e+00
       21 -1    0    0  502  503 -0.0000000000e+00 -0.0000000000e+00 -5.9190687453e+02 5.9190687453e+02 0.0000000000e+00 0.0000e+00 -1.0000e+00
        6  1    1    2  501    0 +3.3374485992e+01 -1.4615838993e+01 -4.8497564091e+02 5.1619555533e+02 1.7300000000e+02 0.0000e+00 -1.0000e+00
       -6  1    1    2    0  503 -3.3374485992e+01 +1.4615838993e+01 -5.7539248175e+00 1.7688862800e+02 1.7300000000e+02 0.0000e+00 -1.0000e+00
<mgrwt>
<rscale>  2 0.17679502E+03</rscale>
<asrwt>0</asrwt>
<pdfrwt beam="1">  1       21 0.15565740E-01 0.17679502E+03</pdfrwt>
<pdfrwt beam="2">  1       21 0.91062597E-01 0.17679502E+03</pdfrwt>
<totfact> 0.37805945E+04</totfact>
</mgrwt>
<rwgt>
<wgt id='1'> +6.5872263e+02 </wgt>
<wgt id='2'> +6.1173919e+02 </wgt>
<wgt id='3'> +5.0481800e+02 </wgt>
<wgt id='4'> +6.5872263e+02 </wgt>
<wgt id='5'> +4.4814846e+02 </wgt>
<wgt id='6'> +6.2197468e+02 </wgt>
<wgt id='7'> +5.7479892e+02 </wgt>
<wgt id='8'> +4.6825865e+02 </wgt>
<wgt id='9'> +6.2197468e+02 </wgt>
<wgt id='10'> +4.1540623e+02 </wgt>
<wgt id='11'> +5.7693075e+02 </wgt>
<wgt id='12'> +5.3270150e+02 </wgt>
<wgt id='13'> +4.3419382e+02 </wgt>
<wgt id='14'> +5.7693075e+02 </wgt>
<wgt id='15'> +3.8537024e+02 </wgt>
<wgt id='16'> +5.3464402e+02 </wgt>
<wgt id='17'> +5.0127826e+02 </wgt>
<wgt id='18'> +4.2390298e+02 </wgt>
<wgt id='19'> +5.3464402e+02 </wgt>
<wgt id='20'> +3.7918126e+02 </wgt>
<wgt id='21'> +4.7100824e+02 </wgt>
<wgt id='22'> +3.9320357e+02 </wgt>
<wgt id='23'> +5.0481800e+02 </wgt>
<wgt id='24'> +3.5147784e+02 </wgt>
<wgt id='25'> +4.6825865e+02 </wgt>
<wgt id='26'> +4.3651229e+02 </wgt>
<wgt id='27'> +3.6459883e+02 </wgt>
<wgt id='28'> +4.6825865e+02 </wgt>
<wgt id='29'> +3.2606420e+02 </wgt>
<wgt id='30'> +4.4894832e+02 </wgt>
<wgt id='31'> +4.2300120e+02 </wgt>
<wgt id='32'> +3.6122310e+02 </wgt>
<wgt id='33'> +4.4894832e+02 </wgt>
<wgt id='34'> +3.2498936e+02 </wgt>
<wgt id='35'> +4.2390298e+02 </wgt>
<wgt id='36'> +3.9745800e+02 </wgt>
<wgt id='37'> +3.3506302e+02 </wgt>
<wgt id='38'> +4.2390298e+02 </wgt>
<wgt id='39'> +3.0124527e+02 </wgt>
<wgt id='40'> +3.9320357e+02 </wgt>
<wgt id='41'> +3.6834877e+02 </wgt>
<wgt id='42'> +3.1068789e+02 </wgt>
<wgt id='43'> +3.9320357e+02 </wgt>
<wgt id='44'> +2.7946370e+02 </wgt>
<wgt id='45'> +5.0481800e+02 </wgt>
<wgt id='46'> +5.1332725e+02 </wgt>
<wgt id='47'> +5.2137280e+02 </wgt>
<wgt id='48'> +5.0817013e+02 </wgt>
<wgt id='49'> +4.9824944e+02 </wgt>
<wgt id='50'> +6.0030747e+02 </wgt>
<wgt id='51'> +4.9273021e+02 </wgt>
<wgt id='52'> +5.0363248e+02 </wgt>
<wgt id='53'> +5.0124653e+02 </wgt>
<wgt id='54'> +5.1181149e+02 </wgt>
<wgt id='55'> +4.7087119e+02 </wgt>
<wgt id='56'> +4.6221972e+02 </wgt>
<wgt id='57'> +5.0300842e+02 </wgt>
<wgt id='58'> +4.9728993e+02 </wgt>
<wgt id='59'> +5.1753386e+02 </wgt>
<wgt id='60'> +4.9894225e+02 </wgt>
<wgt id='61'> +4.5302519e+02 </wgt>
<wgt id='62'> +4.9570564e+02 </wgt>
<wgt id='63'> +5.0665538e+02 </wgt>
<wgt id='64'> +4.9595128e+02 </wgt>
<wgt id='65'> +5.7013095e+02 </wgt>
<wgt id='66'> +4.9512027e+02 </wgt>
<wgt id='67'> +5.0816192e+02 </wgt>
<wgt id='68'> +5.5373643e+02 </wgt>
<wgt id='69'> +5.0160619e+02 </wgt>
<wgt id='70'> +4.9787715e+02 </wgt>
<wgt id='71'> +5.1073784e+02 </wgt>
<wgt id='72'> +4.8600440e+02 </wgt>
<wgt id='73'> +4.9070949e+02 </wgt>
<wgt id='74'> +5.3119961e+02 </wgt>
<wgt id='75'> +5.1669034e+02 </wgt>
<wgt id='76'> +4.9629260e+02 </wgt>
<wgt id='77'> +4.9272658e+02 </wgt>
<wgt id='78'> +4.8748411e+02 </wgt>
<wgt id='79'> +4.9542648e+02 </wgt>
<wgt id='80'> +4.9264119e+02 </wgt>
<wgt id='81'> +4.9528195e+02 </wgt>
<wgt id='82'> +5.0240603e+02 </wgt>
<wgt id='83'> +5.1213230e+02 </wgt>
<wgt id='84'> +5.4543708e+02 </wgt>
<wgt id='85'> +5.1818549e+02 </wgt>
<wgt id='86'> +5.0623617e+02 </wgt>
<wgt id='87'> +5.0751439e+02 </wgt>
<wgt id='88'> +5.0862029e+02 </wgt>
<wgt id='89'> +5.1235142e+02 </wgt>
<wgt id='90'> +5.1350656e+02 </wgt>
<wgt id='91'> +5.2146587e+02 </wgt>
<wgt id='92'> +4.6115474e+02 </wgt>
<wgt id='93'> +5.0097839e+02 </wgt>
<wgt id='94'> +4.9322769e+02 </wgt>
<wgt id='95'> +4.9497929e+02 </wgt>
<wgt id='96'> +5.4253187e+02 </wgt>
<wgt id='97'> +5.0205274e+02 </wgt>
<wgt id='98'> +4.9101484e+02 </wgt>
<wgt id='99'> +4.8067650e+02 </wgt>
<wgt id='100'> +4.7670987e+02 </wgt>
<wgt id='101'> +5.5159847e+02 </wgt>
<wgt id='102'> +5.1256959e+02 </wgt>
<wgt id='103'> +5.4486594e+02 </wgt>
<wgt id='104'> +5.0842720e+02 </wgt>
<wgt id='105'> +5.2203337e+02 </wgt>
<wgt id='106'> +4.6098974e+02 </wgt>
<wgt id='107'> +4.8506652e+02 </wgt>
<wgt id='108'> +4.4650435e+02 </wgt>
<wgt id='109'> +4.7487490e+02 </wgt>
<wgt id='110'> +5.0125163e+02 </wgt>
<wgt id='111'> +4.9097829e+02 </wgt>
<wgt id='112'> +4.7893206e+02 </wgt>
<wgt id='113'> +4.6691314e+02 </wgt>
<wgt id='114'> +4.9662973e+02 </wgt>
<wgt id='115'> +4.8442696e+02 </wgt>
<wgt id='116'> +5.1836918e+02 </wgt>
<wgt id='117'> +5.0197024e+02 </wgt>
<wgt id='118'> +5.2679716e+02 </wgt>
<wgt id='119'> +4.9142189e+02 </wgt>
<wgt id='120'> +4.9462688e+02 </wgt>
<wgt id='121'> +4.9421958e+02 </wgt>
<wgt id='122'> +4.9898016e+02 </wgt>
<wgt id='123'> +5.0867414e+02 </wgt>
<wgt id='124'> +5.5447950e+02 </wgt>
<wgt id='125'> +5.5898258e+02 </wgt>
<wgt id='126'> +5.2119429e+02 </wgt>
<wgt id='127'> +5.1829473e+02 </wgt>
<wgt id='128'> +4.6068570e+02 </wgt>
<wgt id='129'> +5.6742684e+02 </wgt>
<wgt id='130'> +5.0202553e+02 </wgt>
<wgt id='131'> +5.2927250e+02 </wgt>
<wgt id='132'> +5.2283260e+02 </wgt>
<wgt id='133'> +5.1497535e+02 </wgt>
<wgt id='134'> +4.8701912e+02 </wgt>
<wgt id='135'> +5.1311462e+02 </wgt>
<wgt id='136'> +5.1257689e+02 </wgt>
<wgt id='137'> +4.8177527e+02 </wgt>
<wgt id='138'> +4.7045487e+02 </wgt>
<wgt id='139'> +5.1906707e+02 </wgt>
<wgt id='140'> +5.2366251e+02 </wgt>
<wgt id='141'> +5.1142688e+02 </wgt>
<wgt id='142'> +4.8196757e+02 </wgt>
<wgt id='143'> +5.1145011e+02 </wgt>
<wgt id='144'> +4.9637824e+02 </wgt>
<wgt id='145'> +5.0203572e+02 </wgt>
</rwgt>
</event>
<event>
 4      1 +5.0481800e+02 2.20294300e+02 7.54677100e-03 1.13366400e-01
       21 -1    0    0  501  502 +0.0000000000e+00 +0.0000000000e+00 +1.4904832282e+02 1.4904832282e+02 0.0000000000e+00 0.0000e+00 -1.0000e+00
       21 -1    0    0  502  503 -0.0000000000e+00 -0.0000000000e+00 -4.7439624176e+02 4.7439624176e+02 0.0000000000e+00 0.0000e+00 1.0000e+00
        6  1    1    2  501    0 -1.3066233315e+02 -3.9089057472e+01 +1.1907628201e+01 2.2061593625e+02 1.7300000000e+02 0.0000e+00 -1.0000e+00
       -6  1    1    2    0  503 +1.3066233315e+02 +3.9089057472e+01 -3.3725554714e+02 4.0282862832e+02 1.7300000000e+02 0.0000e+00 1.0000e+00
<mgrwt>
<rscale>  2 0.22029435E+03</rscale>
<asrwt>0</asrwt>
<pdfrwt beam="1">  1       21 0.22930511E-01 0.22029435E+03</pdfrwt>
<pdfrwt beam="2">  1       21 0.72984038E-01 0.22029435E+03</pdfrwt>
<totfact> 0.29708409E+04</totfact>
</mgrwt>
<rwgt>
<wgt id='1'> +6.5650394e+02 </wgt>
<wgt id='2'> +5.3806809e+02 </wgt>
<wgt id='3'> +5.0481800e+02 </wgt>
<wgt id='4'> +6.5650394e+02 </wgt>
<wgt id='5'> +4.7139781e+02 </wgt>
<wgt id='6'> +6.1495774e+02 </wgt>
<wgt id='7'> +4.9800615e+02 </wgt>
<wgt id='8'> +4.6712028e+02 </wgt>
<wgt id='9'> +6.1495774e+02 </wgt>
<wgt id='10'> +4.3631554e+02 </wgt>
<wgt id='11'> +5.6903524e+02 </wgt>
<wgt id='12'> +4.6117497e+02 </wgt>
<wgt id='13'> +4.3271191e+02 </wgt>
<wgt id='14'> +5.6903525e+02 </wgt>
<wgt id='15'> +4.0433320e+02 </wgt>
<wgt id='16'> +5.3892322e+02 </wgt>
<wgt id='17'> +4.5249926e+02 </wgt>
<wgt id='18'> +4.2624225e+02 </wgt>
<wgt id='19'> +5.3892322e+02 </wgt>
<wgt id='20'> +3.9951153e+02 </wgt>
<wgt id='21'> +4.1880836e+02 </wgt>
<wgt id='22'> +3.9441224e+02 </wgt>
<wgt id='23'> +5.0481800e+02 </wgt>
<wgt id='24'> +3.6977917e+02 </wgt>
<wgt id='25'> +4.6712028e+02 </wgt>
<wgt id='26'> +3.8783444e+02 </wgt>
<wgt id='27'> +3.6535959e+02 </wgt>
<wgt id='28'> +4.6712028e+02 </wgt>
<wgt id='29'> +3.4267401e+02 </wgt>
<wgt id='30'> +4.5503894e+02 </wgt>
<wgt id='31'> +3.8592619e+02 </wgt>
<wgt id='32'> +3.6465809e+02 </wgt>
<wgt id='33'> +4.5503894e+02 </wgt>
<wgt id='34'> +3.4289818e+02 </wgt>
<wgt id='35'> +4.2624225e+02 </wgt>
<wgt id='36'> +3.5719200e+02 </wgt>
<wgt id='37'> +3.3742693e+02 </wgt>
<wgt id='38'> +4.2624225e+02 </wgt>
<wgt id='39'> +3.1737908e+02 </wgt>
<wgt id='40'> +3.9441224e+02 </wgt>
<wgt id='41'> +3.3077505e+02 </wgt>
<wgt id='42'> +3.1257185e+02 </wgt>
<wgt id='43'> +3.9441224e+02 </wgt>
<wgt id='44'> +2.9411490e+02 </wgt>
<wgt id='45'> +5.0481800e+02 </wgt>
<wgt id='46'> +5.1193290e+02 </wgt>
<wgt id='47'> +5.2426991e+02 </wgt>
<wgt id='48'> +5.0954123e+02 </wgt>
<wgt id='49'> +5.0095810e+02 </wgt>
<wgt id='50'> +6.0350435e+02 </wgt>
<wgt id='51'> +4.9413838e+02 </wgt>
<wgt id='52'> +5.0337534e+02 </wgt>
<wgt id='53'> +5.0416851e+02 </wgt>
<wgt id='54'> +5.0957948e+02 </wgt>
<wgt id='55'> +4.5947651e+02 </wgt>
<wgt id='56'> +4.6268262e+02 </wgt>
<wgt id='57'> +4.9658049e+02 </wgt>
<wgt id='58'> +5.0005799e+02 </wgt>
<wgt id='59'> +5.0985216e+02 </wgt>
<wgt id='60'> +4.9371575e+02 </wgt>
<wgt id='61'> +4.6581635e+02 </wgt>
<wgt id='62'> +4.9777205e+02 </wgt>
<wgt id='63'> +5.0574805e+02 </wgt>
<wgt id='64'> +4.9515240e+02 </wgt>
<wgt id='65'> +5.8409426e+02 </wgt>
<wgt id='66'> +4.9464710e+02 </wgt>
<wgt id='67'> +5.0881340e+02 </wgt>
<wgt id='68'> +5.5080814e+02 </wgt>
<wgt id='69'> +5.0103364e+02 </wgt>
<wgt id='70'> +4.9640564e+02 </wgt>
<wgt id='71'> +5.1269657e+02 </wgt>
<wgt id='72'> +4.8270630e+02 </wgt>
<wgt id='73'> +4.9315008e+02 </wgt>
<wgt id='74'> +5.2851202e+02 </wgt>
<wgt id='75'> +5.1738940e+02 </wgt>
<wgt id='76'> +4.9211601e+02 </wgt>
<wgt id='77'> +4.9119352e+02 </wgt>
<wgt id='78'> +4.9357366e+02 </wgt>
<wgt id='79'> +4.9127439e+02 </wgt>
<wgt id='80'> +4.9550574e+02 </wgt>
<wgt id='81'> +4.9409870e+02 </wgt>
<wgt id='82'> +5.0905620e+02 </wgt>
<wgt id='83'> +5.1579847e+02 </wgt>
<wgt id='84'> +5.5245436e+02 </wgt>
<wgt id='85'> +5.2527362e+02 </wgt>
<wgt id='86'> +5.0574254e+02 </wgt>
<wgt id='87'> +5.0720067e+02 </wgt>
<wgt id='88'> +5.1238269e+02 </wgt>
<wgt id='89'> +5.1618587e+02 </wgt>
<wgt id='90'> +5.1308467e+02 </wgt>
<wgt id='91'> +5.2917250e+02 </wgt>
<wgt id='92'> +4.5713889e+02 </wgt>
<wgt id='93'> +5.0014139e+02 </wgt>
<wgt id='94'> +4.9578709e+02 </wgt>
<wgt id='95'> +4.8768310e+02 </wgt>
<wgt id='96'> +5.4844559e+02 </wgt>
<wgt id='97'> +5.0597508e+02 </wgt>
<wgt id='98'> +4.8658669e+02 </wgt>
<wgt id='99'> +4.8440550e+02 </wgt>
<wgt id='100'> +4.8438284e+02 </wgt>
<wgt id='101'> +5.4652106e+02 </wgt>
<wgt id='102'> +5.0605237e+02 </wgt>
<wgt id='103'> +5.4932986e+02 </wgt>
<wgt id='104'> +5.0797095e+02 </wgt>
<wgt id='105'> +5.2118675e+02 </wgt>
<wgt id='106'> +4.5773184e+02 </wgt>
<wgt id='107'> +4.8697243e+02 </wgt>
<wgt id='108'> +4.4467169e+02 </wgt>
<wgt id='109'> +4.7126672e+02 </wgt>
<wgt id='110'> +5.0238382e+02 </wgt>
<wgt id='111'> +4.8954660e+02 </wgt>
<wgt id='112'> +4.7723058e+02 </wgt>
<wgt id='113'> +4.6251645e+02 </wgt>
<wgt id='114'> +4.9502313e+02 </wgt>
<wgt id='115'> +4.9088912e+02 </wgt>
<wgt id='116'> +5.1568500e+02 </wgt>
<wgt id='117'> +5.0535854e+02 </wgt>
<wgt id='118'> +5.2609554e+02 </wgt>
<wgt id='119'> +4.8623445e+02 </wgt>
<wgt id='120'> +4.9583009e+02 </wgt>
<wgt id='121'> +4.9037858e+02 </wgt>
<wgt id='122'> +4.9818334e+02 </wgt>
<wgt id='123'> +5.1153526e+02 </wgt>
<wgt id='124'> +5.5159320e+02 </wgt>
<wgt id='125'> +5.5370682e+02 </wgt>
<wgt id='126'> +5.2496201e+02 </wgt>
<wgt id='127'> +5.2075384e+02 </wgt>
<wgt id='128'> +4.6236561e+02 </wgt>
<wgt id='129'> +5.7131282e+02 </wgt>
<wgt id='130'> +5.0625697e+02 </wgt>
<wgt id='131'> +5.3499709e+02 </wgt>
<wgt id='132'> +5.1338411e+02 </wgt>
<wgt id='133'> +5.1104346e+02 </wgt>
<wgt id='134'> +4.8114901e+02 </wgt>
<wgt id='135'> +5.1552005e+02 </wgt>
<wgt id='136'> +4.9953279e+02 </wgt>
<wgt id='137'> +4.7998665e+02 </wgt>
<wgt id='138'> +4.6873578e+02 </wgt>
<wgt id='139'> +5.1823410e+02 </wgt>
<wgt id='140'> +5.2862331e+02 </wgt>
<wgt id='141'> +5.0854006e+02 </wgt>
<wgt id='142'> +4.9075266e+02 </wgt>
<wgt id='143'> +5.0722732e+02 </wgt>
<wgt id='144'> +4.9817984e+02 </wgt>
<wgt id='145'> +5.0468981e+02 </wgt>
</rwgt>
</event>
<event>
 4      1 +5.0481800e+02 1.83403400e+02 7.54677100e-03 1.16454900e-01
       21 -1    0    0  501  502 +0.0000000000e+00 +0.0000000000e+00 +4.0154968928e+02 4.0154968928e+02 0.0000000000e+00 0.0000e+00 1.0000e+00
       21 -1    0    0  502  503 -0.0000000000e+00 -0.0000000000e+00 -1.2087377542e+02 1.2087377542e+02 0.0000000000e+00 0.0000e+00 1.0000e+00
        6  1    1    2  501    0 +3.4413533665e+01 +5.0234700805e+01 +2.8506519555e+02 3.3896752378e+02 1.7300000000e+02 0.0000e+00 1.0000e+00
       -6  1    1    2    0  503 -3.4413533665e+01 -5.0234700805e+01 -4.3892816991e+00 1.8345594092e+02 1.7300000000e+02 0.0000e+00 1.0000e+00
<mgrwt>
<rscale>  2 0.18340343E+03</rscale>
<asrwt>0</asrwt>
<pdfrwt beam="1">  1       21 0.61776874E-01 0.18340343E+03</pdfrwt>
<pdfrwt beam="2">  1       21 0.18595966E-01 0.18340343E+03</pdfrwt>
<totfact> 0.64583310E+04</totfact>
</mgrwt>
<rwgt>
<wgt id='1'> +6.5032506e+02 </wgt>
<wgt id='2'> +5.7639309e+02 </wgt>
<wgt id='3'> +5.0481800e+02 </wgt>
<wgt id='4'> +6.5032507e+02 </wgt>
<wgt id='5'> +4.7332491e+02 </wgt>
<wgt id='6'> +6.2087320e+02 </wgt>
<wgt id='7'> +5.4493810e+02 </wgt>
<wgt id='8'> +4.7313610e+02 </wgt>
<wgt id='9'> +6.2087321e+02 </wgt>
<wgt id='10'> +4.4331583e+02 </wgt>
<wgt id='11'> +5.8190779e+02 </wgt>
<wgt id='12'> +5.1036487e+02 </wgt>
<wgt id='13'> +4.4307333e+02 </wgt>
<wgt id='14'> +5.8190779e+02 </wgt>
<wgt id='15'> +4.1516577e+02 </wgt>
<wgt id='16'> +5.2876464e+02 </wgt>
<wgt id='17'> +4.7669839e+02 </wgt>
<wgt id='18'> +4.2439787e+02 </wgt>
<wgt id='19'> +5.2876465e+02 </wgt>
<wgt id='20'> +3.9965166e+02 </wgt>
<wgt id='21'> +4.5068395e+02 </wgt>
<wgt id='22'> +3.9776306e+02 </wgt>
<wgt id='23'> +5.0481800e+02 </wgt>
<wgt id='24'> +3.7431351e+02 </wgt>
<wgt id='25'> +4.7313610e+02 </wgt>
<wgt id='26'> +4.2209061e+02 </wgt>
<wgt id='27'> +3.7248945e+02 </wgt>
<wgt id='28'> +4.7313610e+02 </wgt>
<wgt id='29'> +3.5054502e+02 </wgt>
<wgt id='30'> +4.4452969e+02 </wgt>
<wgt id='31'> +4.0363043e+02 </wgt>
<wgt id='32'> +3.6188779e+02 </wgt>
<wgt id='33'> +4.4452969e+02 </wgt>
<wgt id='34'> +3.4190980e+02 </wgt>
<wgt id='35'> +4.2439787e+02 </wgt>
<wgt id='36'> +3.8160347e+02 </wgt>
<wgt id='37'> +3.3917605e+02 </wgt>
<wgt id='38'> +4.2439787e+02 </wgt>
<wgt id='39'> +3.2023251e+02 </wgt>
<wgt id='40'> +3.9776306e+02 </wgt>
<wgt id='41'> +3.5739289e+02 </wgt>
<wgt id='42'> +3.1762502e+02 </wgt>
<wgt id='43'> +3.9776306e+02 </wgt>
<wgt id='44'> +2.9989810e+02 </wgt>
<wgt id='45'> +5.0481800e+02 </wgt>
<wgt id='46'> +5.0696716e+02 </wgt>
<wgt id='47'> +5.2201659e+02 </wgt>
<wgt id='48'> +5.0679831e+02 </wgt>
<wgt id='49'> +5.0282436e+02 </wgt>
<wgt id='50'> +5.9064206e+02 </wgt>
<wgt id='51'> +4.9483940e+02 </wgt>
<wgt id='52'> +5.0299851e+02 </wgt>
<wgt id='53'> +5.0787031e+02 </wgt>
<wgt id='54'> +5.0823264e+02 </wgt>
<wgt id='55'> +4.5615642e+02 </wgt>
<wgt id='56'> +4.6777423e+02 </wgt>
<wgt id='57'> +4.9427980e+02 </wgt>
<wgt id='58'> +5.0618401e+02 </wgt>
<wgt id='59'> +5.0276500e+02 </wgt>
<wgt id='60'> +4.8878897e+02 </wgt>
<wgt id='61'> +4.8216708e+02 </wgt>
<wgt id='62'> +4.9794514e+02 </wgt>
<wgt id='63'> +5.0528042e+02 </wgt>
<wgt id='64'> +4.9861511e+02 </wgt>
<wgt id='65'> +5.8824662e+02 </wgt>
<wgt id='66'> +4.9327097e+02 </wgt>
<wgt id='67'> +5.0907437e+02 </wgt>
<wgt id='68'> +5.4348460e+02 </wgt>
<wgt id='69'> +4.9395645e+02 </wgt>
<wgt id='70'> +4.9657831e+02 </wgt>
<wgt id='71'> +5.1396789e+02 </wgt>
<wgt id='72'> +4.9041799e+02 </wgt>
<wgt id='73'> +4.9699901e+02 </wgt>
<wgt id='74'> +5.2217364e+02 </wgt>
<wgt id='75'> +5.1564521e+02 </wgt>
<wgt id='76'> +4.9171239e+02 </wgt>
<wgt id='77'> +4.8845970e+02 </wgt>
<wgt id='78'> +5.0097621e+02 </wgt>
<wgt id='79'> +4.8699492e+02 </wgt>
<wgt id='80'> +4.9898505e+02 </wgt>
<wgt id='81'> +4.9538371e+02 </wgt>
<wgt id='82'> +5.1449539e+02 </wgt>
<wgt id='83'> +5.1419269e+02 </wgt>
<wgt id='84'> +5.5181509e+02 </wgt>
<wgt id='85'> +5.2813182e+02 </wgt>
<wgt id='86'> +5.0235246e+02 </wgt>
<wgt id='87'> +5.0565722e+02 </wgt>
<wgt id='88'> +5.1197070e+02 </wgt>
<wgt id='89'> +5.1659724e+02 </wgt>
<wgt id='90'> +5.1199999e+02 </wgt>
<wgt id='91'> +5.3365238e+02 </wgt>
<wgt id='92'> +4.6444045e+02 </wgt>
<wgt id='93'> +4.9737503e+02 </wgt>
<wgt id='94'> +5.0048486e+02 </wgt>
<wgt id='95'> +4.8685132e+02 </wgt>
<wgt id='96'> +5.4422803e+02 </wgt>
<wgt id='97'> +5.1033729e+02 </wgt>
<wgt id='98'> +4.8366409e+02 </wgt>
<wgt id='99'> +4.8867653e+02 </wgt>
<wgt id='100'> +4.9607563e+02 </wgt>
<wgt id='101'> +5.3512869e+02 </wgt>
<wgt id='102'> +4.9538093e+02 </wgt>
<wgt id='103'> +5.4773652e+02 </wgt>
<wgt id='104'> +5.0441927e+02 </wgt>
<wgt id='105'> +5.2415379e+02 </wgt>
<wgt id='106'> +4.6377507e+02 </wgt>
<wgt id='107'> +4.9532511e+02 </wgt>
<wgt id='108'> +4.5091773e+02 </wgt>
<wgt id='109'> +4.7436512e+02 </wgt>
<wgt id='110'> +5.0523575e+02 </wgt>
<wgt id='111'> +4.9150983e+02 </wgt>
<wgt id='112'> +4.8031280e+02 </wgt>
<wgt id='113'> +4.6415178e+02 </wgt>
<wgt id='114'> +5.0106636e+02 </wgt>
<wgt id='115'> +4.9934593e+02 </wgt>
<wgt id='116'> +5.0730779e+02 </wgt>
<wgt id='117'> +5.0873961e+02 </wgt>
<wgt id='118'> +5.1969628e+02 </wgt>
<wgt id='119'> +4.8641974e+02 </wgt>
<wgt id='120'> +4.9904574e+02 </wgt>
<wgt id='121'> +4.9171451e+02 </wgt>
<wgt id='122'> +4.9861447e+02 </wgt>
<wgt id='123'> +5.1044229e+02 </wgt>
<wgt id='124'> +5.4236875e+02 </wgt>
<wgt id='125'> +5.4389528e+02 </wgt>
<wgt id='126'> +5.2330783e+02 </wgt>
<wgt id='127'> +5.1961050e+02 </wgt>
<wgt id='128'> +4.6619771e+02 </wgt>
<wgt id='129'> +5.7065025e+02 </wgt>
<wgt id='130'> +5.0647114e+02 </wgt>
<wgt id='131'> +5.3816724e+02 </wgt>
<wgt id='132'> +5.0577245e+02 </wgt>
<wgt id='133'> +5.0441095e+02 </wgt>
<wgt id='134'> +4.7803692e+02 </wgt>
<wgt id='135'> +5.1691799e+02 </wgt>
<wgt id='136'> +4.9095173e+02 </wgt>
<wgt id='137'> +4.7657784e+02 </wgt>
<wgt id='138'> +4.6116248e+02 </wgt>
<wgt id='139'> +5.1571669e+02 </wgt>
<wgt id='140'> +5.3331072e+02 </wgt>
<wgt id='141'> +5.0509142e+02 </wgt>
<wgt id='142'> +5.0237928e+02 </wgt>
<wgt id='143'> +5.0365957e+02 </wgt>
<wgt id='144'> +5.0318802e+02 </wgt>
<wgt id='145'> +5.0561678e+02 </wgt>
</rwgt>
</event>
<event>
 4      1 +5.0481800e+02 2.21889500e+02 7.54677100e-03 1.13248200e-01
       21 -1    0    0  501  502 +0.0000000000e+00 +0.0000000000e+00 +4.3249223401e+02 4.3249223401e+02 0.0000000000e+00 0.0000e+00 -1.0000e+00
       21 -1    0    0  502  503 -0.0000000000e+00 -0.0000000000e+00 -1.3492475765e+02 1.3492475765e+02 0.0000000000e+00 0.0000e+00 -1.0000e+00
        6  1    1    2  501    0 -8.3493239232e+01 +1.1106225675e+02 +3.6630940548e+01 2.2489280041e+02 1.7300000000e+02 0.0000e+00 -1.0000e+00
       -6  1    1    2    0  503 +8.3493239232e+01 -1.1106225675e+02 +2.6093653581e+02 3.4252419125e+02 1.7300000000e+02 0.0000e+00 -1.0000e+00
<mgrwt>
<rscale>  2 0.22188949E+03</rscale>
<asrwt>0</asrwt>
<pdfrwt beam="1">  1       21 0.66537266E-01 0.22188949E+03</pdfrwt>
<pdfrwt beam="2">  1       21 0.20757655E-01 0.22188949E+03</pdfrwt>
<totfact> 0.43958794E+04</totfact>
</mgrwt>
<rwgt>
<wgt id='1'> +6.5180905e+02 </wgt>
<wgt id='2'> +5.3458660e+02 </wgt>
<wgt id='3'> +5.0481800e+02 </wgt>
<wgt id='4'> +6.5180905e+02 </wgt>
<wgt id='5'> +4.8977719e+02 </wgt>
<wgt id='6'> +6.1471203e+02 </wgt>
<wgt id='7'> +4.9788163e+02 </wgt>
<wgt id='8'> +4.7004875e+02 </wgt>
<wgt id='9'> +6.1471203e+02 </wgt>
<wgt id='10'> +4.5607084e+02 </wgt>
<wgt id='11'> +5.7237385e+02 </wgt>
<wgt id='12'> +4.6373198e+02 </wgt>
<wgt id='13'> +4.3788106e+02 </wgt>
<wgt id='14'> +5.7237385e+02 </wgt>
<wgt id='15'> +4.2490364e+02 </wgt>
<wgt id='16'> +5.3528307e+02 </wgt>
<wgt id='17'> +4.4984095e+02 </wgt>
<wgt id='18'> +4.2629958e+02 </wgt>
<wgt id='19'> +5.3528307e+02 </wgt>
<wgt id='20'> +4.1429540e+02 </wgt>
<wgt id='21'> +4.1895466e+02 </wgt>
<wgt id='22'> +3.9693827e+02 </wgt>
<wgt id='23'> +5.0481800e+02 </wgt>
<wgt id='24'> +3.8578368e+02 </wgt>
<wgt id='25'> +4.7004875e+02 </wgt>
<wgt id='26'> +3.9021859e+02 </wgt>
<wgt id='27'> +3.6977389e+02 </wgt>
<wgt id='28'> +4.7004875e+02 </wgt>
<wgt id='29'> +3.5941980e+02 </wgt>
<wgt id='30'> +4.5202617e+02 </wgt>
<wgt id='31'> +3.8380143e+02 </wgt>
<wgt id='32'> +3.6475310e+02 </wgt>
<wgt id='33'> +4.5202617e+02 </wgt>
<wgt id='34'> +3.5500545e+02 </wgt>
<wgt id='35'> +4.2629958e+02 </wgt>
<wgt id='36'> +3.5744944e+02 </wgt>
<wgt id='37'> +3.3963079e+02 </wgt>
<wgt id='38'> +4.2629958e+02 </wgt>
<wgt id='39'> +3.3057405e+02 </wgt>
<wgt id='40'> +3.9693827e+02 </wgt>
<wgt id='41'> +3.3293202e+02 </wgt>
<wgt id='42'> +3.1638823e+02 </wgt>
<wgt id='43'> +3.9693827e+02 </wgt>
<wgt id='44'> +3.0798312e+02 </wgt>
<wgt id='45'> +5.0481800e+02 </wgt>
<wgt id='46'> +5.0962881e+02 </wgt>
<wgt id='47'> +5.2327557e+02 </wgt>
<wgt id='48'> +5.0832405e+02 </wgt>
<wgt id='49'> +5.0181031e+02 </wgt>
<wgt id='50'> +5.9700558e+02 </wgt>
<wgt id='51'> +4.9455166e+02 </wgt>
<wgt id='52'> +5.0306781e+02 </wgt>
<wgt id='53'> +5.0596084e+02 </wgt>
<wgt id='54'> +5.0887794e+02 </wgt>
<wgt id='55'> +4.5810814e+02 </wgt>
<wgt id='56'> +4.6537775e+02 </wgt>
<wgt id='57'> +4.9541450e+02 </wgt>
<wgt id='58'> +5.0278420e+02 </wgt>
<wgt id='59'> +5.0635607e+02 </wgt>
<wgt id='60'> +4.9136841e+02 </wgt>
<wgt id='61'> +4.7416619e+02 </wgt>
<wgt id='62'> +4.9792685e+02 </wgt>
<wgt id='63'> +5.0555401e+02 </wgt>
<wgt id='64'> +4.9669696e+02 </wgt>
<wgt id='65'> +5.8567769e+02 </wgt>
<wgt id='66'> +4.9422756e+02 </wgt>
<wgt id='67'> +5.0895597e+02 </wgt>
<wgt id='68'> +5.4712788e+02 </wgt>
<wgt id='69'> +4.9804631e+02 </wgt>
<wgt id='70'> +4.9660418e+02 </wgt>
<wgt id='71'> +5.1322546e+02 </wgt>
<wgt id='72'> +4.8604279e+02 </wgt>
<wgt id='73'> +4.9491906e+02 </wgt>
<wgt id='74'> +5.2544285e+02 </wgt>
<wgt id='75'> +5.1661263e+02 </wgt>
<wgt id='76'> +4.9195203e+02 </wgt>
<wgt id='77'> +4.8999551e+02 </wgt>
<wgt id='78'> +4.9707910e+02 </wgt>
<wgt id='79'> +4.8943431e+02 </wgt>
<wgt id='80'> +4.9722267e+02 </wgt>
<wgt id='81'> +4.9478826e+02 </wgt>
<wgt id='82'> +5.1166339e+02 </wgt>
<wgt id='83'> +5.1513446e+02 </wgt>
<wgt id='84'> +5.5201407e+02 </wgt>
<wgt id='85'> +5.2645442e+02 </wgt>
<wgt id='86'> +5.0427614e+02 </wgt>
<wgt id='87'> +5.0643730e+02 </wgt>
<wgt id='88'> +5.1236500e+02 </wgt>
<wgt id='89'> +5.1615674e+02 </wgt>
<wgt id='90'> +5.1240504e+02 </wgt>
<wgt id='91'> +5.3113974e+02 </wgt>
<wgt id='92'> +4.6065064e+02 </wgt>
<wgt id='93'> +4.9892598e+02 </wgt>
<wgt id='94'> +4.9796967e+02 </wgt>
<wgt id='95'> +4.8721472e+02 </wgt>
<wgt id='96'> +5.4641180e+02 </wgt>
<wgt id='97'> +5.0797235e+02 </wgt>
<wgt id='98'> +4.8544412e+02 </wgt>
<wgt id='99'> +4.8644249e+02 </wgt>
<wgt id='100'> +4.8981669e+02 </wgt>
<wgt id='101'> +5.4090654e+02 </wgt>
<wgt id='102'> +5.0116641e+02 </wgt>
<wgt id='103'> +5.4818876e+02 </wgt>
<wgt id='104'> +5.0645846e+02 </wgt>
<wgt id='105'> +5.2228462e+02 </wgt>
<wgt id='106'> +4.6071522e+02 </wgt>
<wgt id='107'> +4.9084893e+02 </wgt>
<wgt id='108'> +4.4797342e+02 </wgt>
<wgt id='109'> +4.7278502e+02 </wgt>
<wgt id='110'> +5.0358052e+02 </wgt>
<wgt id='111'> +4.9049962e+02 </wgt>
<wgt id='112'> +4.7886616e+02 </wgt>
<wgt id='113'> +4.6354207e+02 </wgt>
<wgt id='114'> +4.9770053e+02 </wgt>
<wgt id='115'> +4.9503931e+02 </wgt>
<wgt id='116'> +5.1182767e+02 </wgt>
<wgt id='117'> +5.0697458e+02 </wgt>
<wgt id='118'> +5.2301517e+02 </wgt>
<wgt id='119'> +4.8635804e+02 </wgt>
<wgt id='120'> +4.9736935e+02 </wgt>
<wgt id='121'> +4.9085238e+02 </wgt>
<wgt id='122'> +4.9836885e+02 </wgt>
<wgt id='123'> +5.1109892e+02 </wgt>
<wgt id='124'> +5.4696599e+02 </wgt>
<wgt id='125'> +5.4881072e+02 </wgt>
<wgt id='126'> +5.2417365e+02 </wgt>
<wgt id='127'> +5.2010071e+02 </wgt>
<wgt id='128'> +4.6461485e+02 </wgt>
<wgt id='129'> +5.7041250e+02 </wgt>
<wgt id='130'> +5.0663563e+02 </wgt>
<wgt id='131'> +5.3622132e+02 </wgt>
<wgt id='132'> +5.0956919e+02 </wgt>
<wgt id='133'> +5.0794323e+02 </wgt>
<wgt id='134'> +4.7986614e+02 </wgt>
<wgt id='135'> +5.1601005e+02 </wgt>
<wgt id='136'> +4.9533236e+02 </wgt>
<wgt id='137'> +4.7878254e+02 </wgt>
<wgt id='138'> +4.6583135e+02 </wgt>
<wgt id='139'> +5.1688816e+02 </wgt>
<wgt id='140'> +5.3057988e+02 </wgt>
<wgt id='141'> +5.0703022e+02 </wgt>
<wgt id='142'> +4.9626772e+02 </wgt>
<wgt id='143'> +5.0547994e+02 </wgt>
<wgt id='144'> +5.0042565e+02 </wgt>
<wgt id='145'> +5.0516182e+02 </wgt>
</rwgt>
</event>
<event>
 4      1 +5.0481800e+02 1.95129800e+02 7.54677100e-03 1.15391400e-01
       21 -1    0    0  501  502 +0.0000000000e+00 +0.0000000000e+00 +1.4156227965e+02 1.4156227965e+02 0.0000000000e+00 0.0000e+00 1.0000e+00
       21 -1    0    0  502  503 -0.0000000000e+00 -0.0000000000e+00 -2.6920315009e+02 2.6920315009e+02 0.0000000000e+00 0.0000e+00 1.0000e+00
        6  1    1    2  501    0 +3.3074107613e+01 +8.3980508094e+01 -5.7741135203e+01 2.0349363879e+02 1.7300000000e+02 0.0000e+00 1.0000e+00
       -6  1    1    2    0  503 -3.3074107613e+01 -8.3980508094e+01 -6.9899735241e+01 2.0727179094e+02 1.7300000000e+02 0.0000e+00 1.0000e+00
<mgrwt>
<rscale>  2 0.19512976E+03</rscale>
<asrwt>0</asrwt>
<pdfrwt beam="1">  1       21 0.21778813E-01 0.19512976E+03</pdfrwt>
<pdfrwt beam="2">  1       21 0.41415869E-01 0.19512976E+03</pdfrwt>
<totfact> 0.11034402E+05</totfact>
</mgrwt>
<rwgt>
<wgt id='1'> +6.4273528e+02 </wgt>
<wgt id='2'> +5.3156860e+02 </wgt>
<wgt id='3'> +5.0481800e+02 </wgt>
<wgt id='4'> +6.4273529e+02 </wgt>
<wgt id='5'> +5.0474318e+02 </wgt>
<wgt id='6'> +6.1908234e+02 </wgt>
<wgt id='7'> +5.0360022e+02 </wgt>
<wgt id='8'> +4.7731580e+02 </wgt>
<wgt id='9'> +6.1908235e+02 </wgt>
<wgt id='10'> +4.7724349e+02 </wgt>
<wgt id='11'> +5.8535508e+02 </wgt>
<wgt id='12'> +4.7568401e+02 </wgt>
<wgt id='13'> +4.5077894e+02 </wgt>
<wgt id='14'> +5.8535508e+02 </wgt>
<wgt id='15'> +4.5071046e+02 </wgt>
<wgt id='16'> +5.2410531e+02 </wgt>
<wgt id='17'> +4.4553391e+02 </wgt>
<wgt id='18'> +4.2515470e+02 </wgt>
<wgt id='19'> +5.2410531e+02 </wgt>
<wgt id='20'> +4.2509658e+02 </wgt>
<wgt id='21'> +4.2209223e+02 </wgt>
<wgt id='22'> +4.0199250e+02 </wgt>
<wgt id='23'> +5.0481800e+02 </wgt>
<wgt id='24'> +4.0193623e+02 </wgt>
<wgt id='25'> +4.7731580e+02 </wgt>
<wgt id='26'> +3.9869428e+02 </wgt>
<wgt id='27'> +3.7964332e+02 </wgt>
<wgt id='28'> +4.7731580e+02 </wgt>
<wgt id='29'> +3.7959002e+02 </wgt>
<wgt id='30'> +4.4139835e+02 </wgt>
<wgt id='31'> +3.7927926e+02 </wgt>
<wgt id='32'> +3.6294127e+02 </wgt>
<wgt id='33'> +4.4139835e+02 </wgt>
<wgt id='34'> +3.6289454e+02 </wgt>
<wgt id='35'> +4.2515469e+02 </wgt>
<wgt id='36'> +3.5932355e+02 </wgt>
<wgt id='37'> +3.4316844e+02 </wgt>
<wgt id='38'> +4.2515470e+02 </wgt>
<wgt id='39'> +3.4312312e+02 </wgt>
<wgt id='40'> +4.0199250e+02 </wgt>
<wgt id='41'> +3.3940508e+02 </wgt>
<wgt id='42'> +3.2408964e+02 </wgt>
<wgt id='43'> +4.0199250e+02 </wgt>
<wgt id='44'> +3.2404670e+02 </wgt>
<wgt id='45'> +5.0481800e+02 </wgt>
<wgt id='46'> +5.0195414e+02 </wgt>
<wgt id='47'> +5.2082051e+02 </wgt>
<wgt id='48'> +5.0440024e+02 </wgt>
<wgt id='49'> +5.0403012e+02 </wgt>
<wgt id='50'> +5.7974431e+02 </wgt>
<wgt id='51'> +4.9518178e+02 </wgt>
<wgt id='52'> +5.0122846e+02 </wgt>
<wgt id='53'> +5.1309564e+02 </wgt>
<wgt id='54'> +5.0764246e+02 </wgt>
<wgt id='55'> +4.5245113e+02 </wgt>
<wgt id='56'> +4.7348068e+02 </wgt>
<wgt id='57'> +4.9153098e+02 </wgt>
<wgt id='58'> +5.1099694e+02 </wgt>
<wgt id='59'> +4.9427986e+02 </wgt>
<wgt id='60'> +4.8158142e+02 </wgt>
<wgt id='61'> +4.9808032e+02 </wgt>
<wgt id='62'> +4.9772373e+02 </wgt>
<wgt id='63'> +5.0527862e+02 </wgt>
<wgt id='64'> +5.0296515e+02 </wgt>
<wgt id='65'> +5.9460932e+02 </wgt>
<wgt id='66'> +4.9240991e+02 </wgt>
<wgt id='67'> +5.0937628e+02 </wgt>
<wgt id='68'> +5.3669092e+02 </wgt>
<wgt id='69'> +4.8887365e+02 </wgt>
<wgt id='70'> +4.9719162e+02 </wgt>
<wgt id='71'> +5.1447106e+02 </wgt>
<wgt id='72'> +4.9635008e+02 </wgt>
<wgt id='73'> +4.9974978e+02 </wgt>
<wgt id='74'> +5.1633196e+02 </wgt>
<wgt id='75'> +5.1501805e+02 </wgt>
<wgt id='76'> +4.9106245e+02 </wgt>
<wgt id='77'> +4.8468261e+02 </wgt>
<wgt id='78'> +5.0860928e+02 </wgt>
<wgt id='79'> +4.8259642e+02 </wgt>
<wgt id='80'> +5.0183443e+02 </wgt>
<wgt id='81'> +4.9689338e+02 </wgt>
<wgt id='82'> +5.2015537e+02 </wgt>
<wgt id='83'> +5.1354645e+02 </wgt>
<wgt id='84'> +5.5218574e+02 </wgt>
<wgt id='85'> +5.3091150e+02 </wgt>
<wgt id='86'> +4.9967354e+02 </wgt>
<wgt id='87'> +5.0370230e+02 </wgt>
<wgt id='88'> +5.1255100e+02 </wgt>
<wgt id='89'> +5.1513293e+02 </wgt>
<wgt id='90'> +5.0926968e+02 </wgt>
<wgt id='91'> +5.3773579e+02 </wgt>
<wgt id='92'> +4.7057287e+02 </wgt>
<wgt id='93'> +4.9453540e+02 </wgt>
<wgt id='94'> +5.0444786e+02 </wgt>
<wgt id='95'> +4.8575920e+02 </wgt>
<wgt id='96'> +5.4095815e+02 </wgt>
<wgt id='97'> +5.1442685e+02 </wgt>
<wgt id='98'> +4.8114823e+02 </wgt>
<wgt id='99'> +4.9164546e+02 </wgt>
<wgt id='100'> +5.0630906e+02 </wgt>
<wgt id='101'> +5.2360468e+02 </wgt>
<wgt id='102'> +4.8513423e+02 </wgt>
<wgt id='103'> +5.4503225e+02 </wgt>
<wgt id='104'> +5.0233686e+02 </wgt>
<wgt id='105'> +5.2667429e+02 </wgt>
<wgt id='106'> +4.6994865e+02 </wgt>
<wgt id='107'> +5.0391680e+02 </wgt>
<wgt id='108'> +4.5803292e+02 </wgt>
<wgt id='109'> +4.7769655e+02 </wgt>
<wgt id='110'> +5.0680466e+02 </wgt>
<wgt id='111'> +4.9361872e+02 </wgt>
<wgt id='112'> +4.8495076e+02 </wgt>
<wgt id='113'> +4.6642378e+02 </wgt>
<wgt id='114'> +5.0872355e+02 </wgt>
<wgt id='115'> +5.1124832e+02 </wgt>
<wgt id='116'> +4.9974821e+02 </wgt>
<wgt id='117'> +5.1340214e+02 </wgt>
<wgt id='118'> +5.1319036e+02 </wgt>
<wgt id='119'> +4.8699731e+02 </wgt>
<wgt id='120'> +5.0620423e+02 </wgt>
<wgt id='121'> +4.9234029e+02 </wgt>
<wgt id='122'> +4.9896095e+02 </wgt>
<wgt id='123'> +5.1009378e+02 </wgt>
<wgt id='124'> +5.3313917e+02 </wgt>
<wgt id='125'> +5.3487869e+02 </wgt>
<wgt id='126'> +5.2209838e+02 </wgt>
<wgt id='127'> +5.1794831e+02 </wgt>
<wgt id='128'> +4.7208952e+02 </wgt>
<wgt id='129'> +5.6906495e+02 </wgt>
<wgt id='130'> +5.0784850e+02 </wgt>
<wgt id='131'> +5.4055232e+02 </wgt>
<wgt id='132'> +4.9605858e+02 </wgt>
<wgt id='133'> +4.9798143e+02 </wgt>
<wgt id='134'> +4.7448995e+02 </wgt>
<wgt id='135'> +5.1765404e+02 </wgt>
<wgt id='136'> +4.8150814e+02 </wgt>
<wgt id='137'> +4.7444694e+02 </wgt>
<wgt id='138'> +4.5578899e+02 </wgt>
<wgt id='139'> +5.1257903e+02 </wgt>
<wgt id='140'> +5.3826377e+02 </wgt>
<wgt id='141'> +5.0296959e+02 </wgt>
<wgt id='142'> +5.1257304e+02 </wgt>
<wgt id='143'> +4.9864542e+02 </wgt>
<wgt id='144'> +5.0686652e+02 </wgt>
<wgt id='145'> +5.0588015e+02 </wgt>
</rwgt>
</event>
<event>
 4      1 +5.0481800e+02 1.79027900e+02 7.54677100e-03 1.16874700e-01
       21 -1    0    0  503  502 +0.0000000000e+00 +0.0000000000e+00 +1.7223198764e+02 1.7223198764e+02 0.0000000000e+00 0.0000e+00 -1.0000e+00
       21 -1    0    0  501  503 -0.0000000000e+00 -0.0000000000e+00 -6.9323681484e+02 6.9323681484e+02 0.0000000000e+00 0.0000e+00 -1.0000e+00
        6  1    1    2  501    0 -3.9243554327e+01 -2.4123335501e+01 -6.3062587529e+02 6.5554556399e+02 1.7300000000e+02 0.0000e+00 -1.0000e+00
       -6  1    1    2    0  502 +3.9243554327e+01 +2.4123335501e+01 +1.0962104809e+02 2.0992323849e+02 1.7300000000e+02 0.0000e+00 -1.0000e+00
<mgrwt>
<rscale>  2 0.17902791E+03</rscale>
<asrwt>0</asrwt>
<pdfrwt beam="1">  1       21 0.26497229E-01 0.17902791E+03</pdfrwt>
<pdfrwt beam="2">  1       21 0.10665182E+00 0.17902791E+03</pdfrwt>
<totfact> 0.96298465E+03</totfact>
</mgrwt>
<rwgt>
<wgt id='1'> +6.7605598e+02 </wgt>
<wgt id='2'> +7.8169417e+02 </wgt>
<wgt id='3'> +5.0481800e+02 </wgt>
<wgt id='4'> +6.7605599e+02 </wgt>
<wgt id='5'> +3.8950908e+02 </wgt>
<wgt id='6'> +6.2159780e+02 </wgt>
<wgt id='7'> +7.2017539e+02 </wgt>
<wgt id='8'> +4.5741117e+02 </wgt>
<wgt id='9'> +6.2159780e+02 </wgt>
<wgt id='10'> +3.5363852e+02 </wgt>
<wgt id='11'> +5.6322432e+02 </wgt>
<wgt id='12'> +6.5655231e+02 </wgt>
<wgt id='13'> +4.1535129e+02 </wgt>
<wgt id='14'> +5.6322432e+02 </wgt>
<wgt id='15'> +3.2207846e+02 </wgt>
<wgt id='16'> +5.4904511e+02 </wgt>
<wgt id='17'> +6.2727245e+02 </wgt>
<wgt id='18'> +4.2407653e+02 </wgt>
<wgt id='19'> +5.4904511e+02 </wgt>
<wgt id='20'> +3.3177312e+02 </wgt>
<wgt id='21'> +5.7790655e+02 </wgt>
<wgt id='22'> +3.8425203e+02 </wgt>
<wgt id='23'> +5.0481800e+02 </wgt>
<wgt id='24'> +3.0121957e+02 </wgt>
<wgt id='25'> +4.5741117e+02 </wgt>
<wgt id='26'> +5.2685205e+02 </wgt>
<wgt id='27'> +3.4891928e+02 </wgt>
<wgt id='28'> +4.5741117e+02 </wgt>
<wgt id='29'> +2.7433758e+02 </wgt>
<wgt id='30'> +4.6122988e+02 </wgt>
<wgt id='31'> +5.1923125e+02 </wgt>
<wgt id='32'> +3.6145436e+02 </wgt>
<wgt id='33'> +4.6122988e+02 </wgt>
<wgt id='34'> +2.8598255e+02 </wgt>
<wgt id='35'> +4.2407653e+02 </wgt>
<wgt id='36'> +4.7836812e+02 </wgt>
<wgt id='37'> +3.2751063e+02 </wgt>
<wgt id='38'> +4.2407653e+02 </wgt>
<wgt id='39'> +2.5964592e+02 </wgt>
<wgt id='40'> +3.8425203e+02 </wgt>
<wgt id='41'> +4.3610723e+02 </wgt>
<wgt id='42'> +2.9739536e+02 </wgt>
<wgt id='43'> +3.8425203e+02 </wgt>
<wgt id='44'> +2.3647413e+02 </wgt>
<wgt id='45'> +5.0481800e+02 </wgt>
<wgt id='46'> +5.1950920e+02 </wgt>
<wgt id='47'> +5.2521482e+02 </wgt>
<wgt id='48'> +5.1088921e+02 </wgt>
<wgt id='49'> +4.9466702e+02 </wgt>
<wgt id='50'> +6.2209238e+02 </wgt>
<wgt id='51'> +4.9043396e+02 </wgt>
<wgt id='52'> +5.0254329e+02 </wgt>
<wgt id='53'> +4.9780133e+02 </wgt>
<wgt id='54'> +5.1498148e+02 </wgt>
<wgt id='55'> +4.7393903e+02 </wgt>
<wgt id='56'> +4.5539024e+02 </wgt>
<wgt id='57'> +5.0562413e+02 </wgt>
<wgt id='58'> +4.8802094e+02 </wgt>
<wgt id='59'> +5.2580039e+02 </wgt>
<wgt id='60'> +5.0246226e+02 </wgt>
<wgt id='61'> +4.3957752e+02 </wgt>
<wgt id='62'> +4.9396736e+02 </wgt>
<wgt id='63'> +5.0850923e+02 </wgt>
<wgt id='64'> +4.9259712e+02 </wgt>
<wgt id='65'> +5.6772181e+02 </wgt>
<wgt id='66'> +4.9656096e+02 </wgt>
<wgt id='67'> +5.0783309e+02 </wgt>
<wgt id='68'> +5.6524297e+02 </wgt>
<wgt id='69'> +5.1162198e+02 </wgt>
<wgt id='70'> +4.9829776e+02 </wgt>
<wgt id='71'> +5.0759372e+02 </wgt>
<wgt id='72'> +4.7396697e+02 </wgt>
<wgt id='73'> +4.8384999e+02 </wgt>
<wgt id='74'> +5.4130787e+02 </wgt>
<wgt id='75'> +5.2045655e+02 </wgt>
<wgt id='76'> +4.9620518e+02 </wgt>
<wgt id='77'> +4.9398816e+02 </wgt>
<wgt id='78'> +4.7713752e+02 </wgt>
<wgt id='79'> +5.0036521e+02 </wgt>
<wgt id='80'> +4.8677118e+02 </wgt>
<wgt id='81'> +4.9380329e+02 </wgt>
<wgt id='82'> +4.9667205e+02 </wgt>
<wgt id='83'> +5.1466044e+02 </wgt>
<wgt id='84'> +5.4764289e+02 </wgt>
<wgt id='85'> +5.1458049e+02 </wgt>
<wgt id='86'> +5.1132286e+02 </wgt>
<wgt id='87'> +5.0895947e+02 </wgt>
<wgt id='88'> +5.0979946e+02 </wgt>
<wgt id='89'> +5.0933110e+02 </wgt>
<wgt id='90'> +5.1264358e+02 </wgt>
<wgt id='91'> +5.1469217e+02 </wgt>
<wgt id='92'> +4.4914261e+02 </wgt>
<wgt id='93'> +5.0410903e+02 </wgt>
<wgt id='94'> +4.8572633e+02 </wgt>
<wgt id='95'> +4.9563016e+02 </wgt>
<wgt id='96'> +5.5036999e+02 </wgt>
<wgt id='97'> +4.9556400e+02 </wgt>
<wgt id='98'> +4.9500060e+02 </wgt>
<wgt id='99'> +4.7242461e+02 </wgt>
<wgt id='100'> +4.5873415e+02 </wgt>
<wgt id='101'> +5.6810399e+02 </wgt>
<wgt id='102'> +5.2671641e+02 </wgt>
<wgt id='103'> +5.4692146e+02 </wgt>
<wgt id='104'> +5.1438940e+02 </wgt>
<wgt id='105'> +5.1883195e+02 </wgt>
<wgt id='106'> +4.5177565e+02 </wgt>
<wgt id='107'> +4.7471958e+02 </wgt>
<wgt id='108'> +4.3730604e+02 </wgt>
<wgt id='109'> +4.7043349e+02 </wgt>
<wgt id='110'> +4.9628662e+02 </wgt>
<wgt id='111'> +4.8785074e+02 </wgt>
<wgt id='112'> +4.7700204e+02 </wgt>
<wgt id='113'> +4.6448038e+02 </wgt>
<wgt id='114'> +4.9139486e+02 </wgt>
<wgt id='115'> +4.7534431e+02 </wgt>
<wgt id='116'> +5.3024256e+02 </wgt>
<wgt id='117'> +4.9868843e+02 </wgt>
<wgt id='118'> +5.3517611e+02 </wgt>
<wgt id='119'> +4.9235988e+02 </wgt>
<wgt id='120'> +4.9347536e+02 </wgt>
<wgt id='121'> +4.9192973e+02 </wgt>
<wgt id='122'> +4.9732057e+02 </wgt>
<wgt id='123'> +5.0998667e+02 </wgt>
<wgt id='124'> +5.6830835e+02 </wgt>
<wgt id='125'> +5.7560422e+02 </wgt>
<wgt id='126'> +5.2353606e+02 </wgt>
<wgt id='127'> +5.1922300e+02 </wgt>
<wgt id='128'> +4.5621492e+02 </wgt>
<wgt id='129'> +5.6975272e+02 </wgt>
<wgt id='130'> +5.0344313e+02 </wgt>
<wgt id='131'> +5.2540752e+02 </wgt>
<wgt id='132'> +5.3111601e+02 </wgt>
<wgt id='133'> +5.2416560e+02 </wgt>
<wgt id='134'> +4.8962850e+02 </wgt>
<wgt id='135'> +5.1106992e+02 </wgt>
<wgt id='136'> +5.2375812e+02 </wgt>
<wgt id='137'> +4.8593022e+02 </wgt>
<wgt id='138'> +4.7975634e+02 </wgt>
<wgt id='139'> +5.2259452e+02 </wgt>
<wgt id='140'> +5.1896013e+02 </wgt>
<wgt id='141'> +5.1819081e+02 </wgt>
<wgt id='142'> +4.6657038e+02 </wgt>
<wgt id='143'> +5.1439531e+02 </wgt>
<wgt id='144'> +4.8817361e+02 </wgt>
<wgt id='145'> +4.9852384e+02 </wgt>
</rwgt>
</event>
<event>
 4      1 +5.0481800e+02 3.31373500e+02 7.54677100e-03 1.07053100e-01
       21 -1    0    0  501  502 +0.0000000000e+00 +0.0000000000e+00 +1.9108216321e+02 1.9108216321e+02 0.0000000000e+00 0.0000e+00 -1.0000e+00
       21 -1    0    0  502  503 -0.0000000000e+00 -0.0000000000e+00 -5.7992061641e+02 5.7992061641e+02 0.0000000000e+00 0.0000e+00 1.0000e+00
        6  1    1    2  501    0 -8.2548935906e+01 +2.7030554172e+02 -1.5772360233e+02 3.6699475124e+02 1.7300000000e+02 0.0000e+00 -1.0000e+00
       -6  1    1    2    0  503 +8.2548935906e+01 -2.7030554172e+02 -2.3111485087e+02 4.0400802838e+02 1.7300000000e+02 0.0000e+00 -1.0000e+00
<mgrwt>
<rscale>  2 0.33137352E+03</rscale>
<asrwt>0</asrwt>
<pdfrwt beam="1">  1       21 0.29397256E-01 0.33137352E+03</pdfrwt>
<pdfrwt beam="2">  1       21 0.89218556E-01 0.33137352E+03</pdfrwt>
<totfact> 0.11041559E+04</totfact>
</mgrwt>
<rwgt>
<wgt id='1'> +6.6119345e+02 </wgt>
<wgt id='2'> +5.1358325e+02 </wgt>
<wgt id='3'> +5.0481800e+02 </wgt>
<wgt id='4'> +6.6119344e+02 </wgt>
<wgt id='5'> +5.0395266e+02 </wgt>
<wgt id='6'> +6.0256932e+02 </wgt>
<wgt id='7'> +4.6829105e+02 </wgt>
<wgt id='8'> +4.6037737e+02 </wgt>
<wgt id='9'> +6.0256932e+02 </wgt>
<wgt id='10'> +4.5959609e+02 </wgt>
<wgt id='11'> +5.4952335e+02 </wgt>
<wgt id='12'> +4.2817050e+02 </wgt>
<wgt id='13'> +4.2101471e+02 </wgt>
<wgt id='14'> +5.4952335e+02 </wgt>
<wgt id='15'> +4.2030823e+02 </wgt>
<wgt id='16'> +5.5393187e+02 </wgt>
<wgt id='17'> +4.3673632e+02 </wgt>
<wgt id='18'> +4.2965214e+02 </wgt>
<wgt id='19'> +5.5393187e+02 </wgt>
<wgt id='20'> +4.2895242e+02 </wgt>
<wgt id='21'> +3.9822114e+02 </wgt>
<wgt id='22'> +3.9182858e+02 </wgt>
<wgt id='23'> +5.0481800e+02 </wgt>
<wgt id='24'> +3.9119718e+02 </wgt>
<wgt id='25'> +4.6037737e+02 </wgt>
<wgt id='26'> +3.6410379e+02 </wgt>
<wgt id='27'> +3.5832691e+02 </wgt>
<wgt id='28'> +4.6037737e+02 </wgt>
<wgt id='29'> +3.5775629e+02 </wgt>
<wgt id='30'> +4.7145311e+02 </wgt>
<wgt id='31'> +3.7593176e+02 </wgt>
<wgt id='32'> +3.7010477e+02 </wgt>
<wgt id='33'> +4.7145311e+02 </wgt>
<wgt id='34'> +3.6952897e+02 </wgt>
<wgt id='35'> +4.2965214e+02 </wgt>
<wgt id='36'> +3.4277886e+02 </wgt>
<wgt id='37'> +3.3752335e+02 </wgt>
<wgt id='38'> +4.2965214e+02 </wgt>
<wgt id='39'> +3.3700402e+02 </wgt>
<wgt id='40'> +3.9182859e+02 </wgt>
<wgt id='41'> +3.1341149e+02 </wgt>
<wgt id='42'> +3.0866481e+02 </wgt>
<wgt id='43'> +3.9182858e+02 </wgt>
<wgt id='44'> +3.0819575e+02 </wgt>
<wgt id='45'> +5.0481800e+02 </wgt>
<wgt id='46'> +5.1887383e+02 </wgt>
<wgt id='47'> +5.2657018e+02 </wgt>
<wgt id='48'> +5.1246741e+02 </wgt>
<wgt id='49'> +4.9682799e+02 </wgt>
<wgt id='50'> +6.1789502e+02 </wgt>
<wgt id='51'> +4.9258426e+02 </wgt>
<wgt id='52'> +5.0251772e+02 </wgt>
<wgt id='53'> +4.9900288e+02 </wgt>
<wgt id='54'> +5.1253867e+02 </wgt>
<wgt id='55'> +4.6983550e+02 </wgt>
<wgt id='56'> +4.5776906e+02 </wgt>
<wgt id='57'> +5.0188123e+02 </wgt>
<wgt id='58'> +4.8993674e+02 </wgt>
<wgt id='59'> +5.2149093e+02 </wgt>
<wgt id='60'> +5.0143339e+02 </wgt>
<wgt id='61'> +4.4578604e+02 </wgt>
<wgt id='62'> +4.9623478e+02 </wgt>
<wgt id='63'> +5.0744588e+02 </wgt>
<wgt id='64'> +4.9119404e+02 </wgt>
<wgt id='65'> +5.7045130e+02 </wgt>
<wgt id='66'> +4.9775397e+02 </wgt>
<wgt id='67'> +5.0827004e+02 </wgt>
<wgt id='68'> +5.6179357e+02 </wgt>
<wgt id='69'> +5.1253158e+02 </wgt>
<wgt id='70'> +4.9832720e+02 </wgt>
<wgt id='71'> +5.0916545e+02 </wgt>
<wgt id='72'> +4.7249546e+02 </wgt>
<wgt id='73'> +4.8631580e+02 </wgt>
<wgt id='74'> +5.3850900e+02 </wgt>
<wgt id='75'> +5.2021247e+02 </wgt>
<wgt id='76'> +4.9440353e+02 </wgt>
<wgt id='77'> +4.9476059e+02 </wgt>
<wgt id='78'> +4.8118086e+02 </wgt>
<wgt id='79'> +4.9961300e+02 </wgt>
<wgt id='80'> +4.8941305e+02 </wgt>
<wgt id='81'> +4.9381590e+02 </wgt>
<wgt id='82'> +5.0025192e+02 </wgt>
<wgt id='83'> +5.1660845e+02 </wgt>
<wgt id='84'> +5.4925130e+02 </wgt>
<wgt id='85'> +5.1736416e+02 </wgt>
<wgt id='86'> +5.1129716e+02 </wgt>
<wgt id='87'> +5.0878293e+02 </wgt>
<wgt id='88'> +5.1205207e+02 </wgt>
<wgt id='89'> +5.1144046e+02 </wgt>
<wgt id='90'> +5.1268964e+02 </wgt>
<wgt id='91'> +5.1867171e+02 </wgt>
<wgt id='92'> +4.4951707e+02 </wgt>
<wgt id='93'> +5.0437842e+02 </wgt>
<wgt id='94'> +4.8799213e+02 </wgt>
<wgt id='95'> +4.9140735e+02 </wgt>
<wgt id='96'> +5.5155049e+02 </wgt>
<wgt id='97'> +4.9788761e+02 </wgt>
<wgt id='98'> +4.9383877e+02 </wgt>
<wgt id='99'> +4.7630408e+02 </wgt>
<wgt id='100'> +4.6506746e+02 </wgt>
<wgt id='101'> +5.6324808e+02 </wgt>
<wgt id='102'> +5.2370194e+02 </wgt>
<wgt id='103'> +5.4699267e+02 </wgt>
<wgt id='104'> +5.1431418e+02 </wgt>
<wgt id='105'> +5.1668804e+02 </wgt>
<wgt id='106'> +4.5216573e+02 </wgt>
<wgt id='107'> +4.7607052e+02 </wgt>
<wgt id='108'> +4.3928922e+02 </wgt>
<wgt id='109'> +4.6937115e+02 </wgt>
<wgt id='110'> +4.9690964e+02 </wgt>
<wgt id='111'> +4.8751595e+02 </wgt>
<wgt id='112'> +4.7599585e+02 </wgt>
<wgt id='113'> +4.6407215e+02 </wgt>
<wgt id='114'> +4.8832772e+02 </wgt>
<wgt id='115'> +4.7872594e+02 </wgt>
<wgt id='116'> +5.2864623e+02 </wgt>
<wgt id='117'> +4.9997964e+02 </wgt>
<wgt id='118'> +5.3400755e+02 </wgt>
<wgt id='119'> +4.8920271e+02 </wgt>
<wgt id='120'> +4.9219031e+02 </wgt>
<wgt id='121'> +4.8956904e+02 </wgt>
<wgt id='122'> +4.9737183e+02 </wgt>
<wgt id='123'> +5.1156456e+02 </wgt>
<wgt id='124'> +5.6388230e+02 </wgt>
<wgt id='125'> +5.6921091e+02 </wgt>
<wgt id='126'> +5.2510032e+02 </wgt>
<wgt id='127'> +5.2001899e+02 </wgt>
<wgt id='128'> +4.5929975e+02 </wgt>
<wgt id='129'> +5.6778902e+02 </wgt>
<wgt id='130'> +5.0572520e+02 </wgt>
<wgt id='131'> +5.2681594e+02 </wgt>
<wgt id='132'> +5.2566936e+02 </wgt>
<wgt id='133'> +5.2168586e+02 </wgt>
<wgt id='134'> +4.8844934e+02 </wgt>
<wgt id='135'> +5.1173962e+02 </wgt>
<wgt id='136'> +5.1598913e+02 </wgt>
<wgt id='137'> +4.8734727e+02 </wgt>
<wgt id='138'> +4.8242190e+02 </wgt>
<wgt id='139'> +5.2126205e+02 </wgt>
<wgt id='140'> +5.1968354e+02 </wgt>
<wgt id='141'> +5.1596636e+02 </wgt>
<wgt id='142'> +4.7165924e+02 </wgt>
<wgt id='143'> +5.1281689e+02 </wgt>
<wgt id='144'> +4.8991710e+02 </wgt>
<wgt id='145'> +5.0146785e+02 </wgt>
</rwgt>
</event>
<event>
 4      1 +5.0481800e+02 1.98762000e+02 7.54677100e-03 1.15078800e-01
       21 -1    0    0  503  502 +0.0000000000e+00 +0.0000000000e+00 +7.8180909891e+01 7.8180909891e+01 0.0000000000e+00 0.0000e+00 1.0000e+00
       21 -1    0    0  501  503 -0.0000000000e+00 -0.0000000000e+00 -7.9705164810e+02 7.9705164810e+02 0.0000000000e+00 0.0000e+00 1.0000e+00
        6  1    1    2  501    0 -9.9880252284e-01 -9.7858719809e+01 -6.2418934623e+02 6.5507149732e+02 1.7300000000e+02 0.0000e+00 1.0000e+00
       -6  1    1    2    0  502 +9.9880252284e-01 +9.7858719809e+01 -9.4681391972e+01 2.2016106067e+02 1.7300000000e+02 0.0000e+00 1.0000e+00
<mgrwt>
<rscale>  2 0.19876198E+03</rscale>
<asrwt>0</asrwt>
<pdfrwt beam="1">  1       21 0.12027832E-01 0.19876198E+03</pdfrwt>
<pdfrwt beam="2">  1       21 0.12262333E+00 0.19876198E+03</pdfrwt>
<totfact> 0.29139439E+04</totfact>
</mgrwt>
<rwgt>
<wgt id='1'> +6.6205940e+02 </wgt>
<wgt id='2'> +5.9502031e+02 </wgt>
<wgt id='3'> +5.0481800e+02 </wgt>
<wgt id='4'> +6.6205940e+02 </wgt>
<wgt id='5'> +4.6347977e+02 </wgt>
<wgt id='6'> +6.1849372e+02 </wgt>
<wgt id='7'> +5.5161154e+02 </wgt>
<wgt id='8'> +4.6439689e+02 </wgt>
<wgt id='9'> +6.1849371e+02 </wgt>
<wgt id='10'> +4.2652680e+02 </wgt>
<wgt id='11'> +5.6897052e+02 </wgt>
<wgt id='12'> +5.0765897e+02 </wgt>
<wgt id='13'> +4.2771550e+02 </wgt>
<wgt id='14'> +5.6897052e+02 </wgt>
<wgt id='15'> +3.9303813e+02 </wgt>
<wgt id='16'> +5.4037655e+02 </wgt>
<wgt id='17'> +4.9268249e+02 </wgt>
<wgt id='18'> +4.2535195e+02 </wgt>
<wgt id='19'> +5.4037655e+02 </wgt>
<wgt id='20'> +3.9230882e+02 </wgt>
<wgt id='21'> +4.5673961e+02 </wgt>
<wgt id='22'> +3.9129374e+02 </wgt>
<wgt id='23'> +5.0481800e+02 </wgt>
<wgt id='24'> +3.6103027e+02 </wgt>
<wgt id='25'> +4.6439689e+02 </wgt>
<wgt id='26'> +4.2034646e+02 </wgt>
<wgt id='27'> +3.6038657e+02 </wgt>
<wgt id='28'> +4.6439689e+02 </wgt>
<wgt id='29'> +3.3268405e+02 </wgt>
<wgt id='30'> +4.5531305e+02 </wgt>
<wgt id='31'> +4.1735502e+02 </wgt>
<wgt id='32'> +3.6323072e+02 </wgt>
<wgt id='33'> +4.5531305e+02 </wgt>
<wgt id='34'> +3.3635594e+02 </wgt>
<wgt id='35'> +4.2535195e+02 </wgt>
<wgt id='36'> +3.8690754e+02 </wgt>
<wgt id='37'> +3.3414660e+02 </wgt>
<wgt id='38'> +4.2535195e+02 </wgt>
<wgt id='39'> +3.0953848e+02 </wgt>
<wgt id='40'> +3.9129374e+02 </wgt>
<wgt id='41'> +3.5607863e+02 </wgt>
<wgt id='42'> +3.0775331e+02 </wgt>
<wgt id='43'> +3.9129374e+02 </wgt>
<wgt id='44'> +2.8523513e+02 </wgt>
<wgt id='45'> +5.0481800e+02 </wgt>
<wgt id='46'> +5.1752467e+02 </wgt>
<wgt id='47'> +5.1908602e+02 </wgt>
<wgt id='48'> +5.0722034e+02 </wgt>
<wgt id='49'> +4.8982391e+02 </wgt>
<wgt id='50'> +6.0088553e+02 </wgt>
<wgt id='51'> +4.8833392e+02 </wgt>
<wgt id='52'> +4.9939639e+02 </wgt>
<wgt id='53'> +4.9808566e+02 </wgt>
<wgt id='54'> +5.1882324e+02 </wgt>
<wgt id='55'> +4.9671908e+02 </wgt>
<wgt id='56'> +4.6377137e+02 </wgt>
<wgt id='57'> +5.1520001e+02 </wgt>
<wgt id='58'> +4.8581212e+02 </wgt>
<wgt id='59'> +5.3187120e+02 </wgt>
<wgt id='60'> +5.0602722e+02 </wgt>
<wgt id='61'> +4.3853965e+02 </wgt>
<wgt id='62'> +4.8935805e+02 </wgt>
<wgt id='63'> +5.1186819e+02 </wgt>
<wgt id='64'> +4.9778965e+02 </wgt>
<wgt id='65'> +5.4003888e+02 </wgt>
<wgt id='66'> +4.9867913e+02 </wgt>
<wgt id='67'> +5.0721626e+02 </wgt>
<wgt id='68'> +5.6627049e+02 </wgt>
<wgt id='69'> +5.1154508e+02 </wgt>
<wgt id='70'> +5.0488950e+02 </wgt>
<wgt id='71'> +5.0234690e+02 </wgt>
<wgt id='72'> +4.8285156e+02 </wgt>
<wgt id='73'> +4.8111525e+02 </wgt>
<wgt id='74'> +5.4213170e+02 </wgt>
<wgt id='75'> +5.2049767e+02 </wgt>
<wgt id='76'> +5.0410632e+02 </wgt>
<wgt id='77'> +4.9320222e+02 </wgt>
<wgt id='78'> +4.7154249e+02 </wgt>
<wgt id='79'> +5.0713451e+02 </wgt>
<wgt id='80'> +4.8232552e+02 </wgt>
<wgt id='81'> +4.9959635e+02 </wgt>
<wgt id='82'> +4.9135798e+02 </wgt>
<wgt id='83'> +5.0710855e+02 </wgt>
<wgt id='84'> +5.3151920e+02 </wgt>
<wgt id='85'> +5.0120356e+02 </wgt>
<wgt id='86'> +5.1119436e+02 </wgt>
<wgt id='87'> +5.0708936e+02 </wgt>
<wgt id='88'> +5.0268444e+02 </wgt>
<wgt id='89'> +4.9650391e+02 </wgt>
<wgt id='90'> +5.0783283e+02 </wgt>
<wgt id='91'> +5.0055485e+02 </wgt>
<wgt id='92'> +4.6384168e+02 </wgt>
<wgt id='93'> +5.0397286e+02 </wgt>
<wgt id='94'> +4.8406952e+02 </wgt>
<wgt id='95'> +5.0828466e+02 </wgt>
<wgt id='96'> +5.3598387e+02 </wgt>
<wgt id='97'> +4.9020880e+02 </wgt>
<wgt id='98'> +5.0335369e+02 </wgt>
<wgt id='99'> +4.6699398e+02 </wgt>
<wgt id='100'> +4.5133192e+02 </wgt>
<wgt id='101'> +5.6579055e+02 </wgt>
<wgt id='102'> +5.3134347e+02 </wgt>
<wgt id='103'> +5.3133886e+02 </wgt>
<wgt id='104'> +5.1539561e+02 </wgt>
<wgt id='105'> +5.2068565e+02 </wgt>
<wgt id='106'> +4.6647704e+02 </wgt>
<wgt id='107'> +4.8000402e+02 </wgt>
<wgt id='108'> +4.5100882e+02 </wgt>
<wgt id='109'> +4.8170581e+02 </wgt>
<wgt id='110'> +4.9352875e+02 </wgt>
<wgt id='111'> +4.9224773e+02 </wgt>
<wgt id='112'> +4.8829951e+02 </wgt>
<wgt id='113'> +4.7935706e+02 </wgt>
<wgt id='114'> +5.0112703e+02 </wgt>
<wgt id='115'> +4.7365676e+02 </wgt>
<wgt id='116'> +5.2956500e+02 </wgt>
<wgt id='117'> +4.9658683e+02 </wgt>
<wgt id='118'> +5.2907165e+02 </wgt>
<wgt id='119'> +5.0547721e+02 </wgt>
<wgt id='120'> +4.9713385e+02 </wgt>
<wgt id='121'> +4.9881763e+02 </wgt>
<wgt id='122'> +4.9902580e+02 </wgt>
<wgt id='123'> +5.0331802e+02 </wgt>
<wgt id='124'> +5.6281632e+02 </wgt>
<wgt id='125'> +5.7752255e+02 </wgt>
<wgt id='126'> +5.1427448e+02 </wgt>
<wgt id='127'> +5.1100334e+02 </wgt>
<wgt id='128'> +4.6280945e+02 </wgt>
<wgt id='129'> +5.5534036e+02 </wgt>
<wgt id='130'> +4.9458751e+02 </wgt>
<wgt id='131'> +5.1247284e+02 </wgt>
<wgt id='132'> +5.3859740e+02 </wgt>
<wgt id='133'> +5.2655899e+02 </wgt>
<wgt id='134'> +5.0014868e+02 </wgt>
<wgt id='135'> +5.0527881e+02 </wgt>
<wgt id='136'> +5.4053069e+02 </wgt>
<wgt id='137'> +4.9144191e+02 </wgt>
<wgt id='138'> +4.8319389e+02 </wgt>
<wgt id='139'> +5.2038876e+02 </wgt>
<wgt id='140'> +5.1214350e+02 </wgt>
<wgt id='141'> +5.2406459e+02 </wgt>
<wgt id='142'> +4.5152414e+02 </wgt>
<wgt id='143'> +5.1733500e+02 </wgt>
<wgt id='144'> +4.8679586e+02 </wgt>
<wgt id='145'> +4.9295645e+02 </wgt>
</rwgt>
</event>
<event>
 4      1 +5.0481800e+02 1.97107300e+02 7.54677100e-03 1.15220300e-01
       -2 -1    0    0    0  501 -0.0000000000e+00 +0.0000000000e+00 +7.6552368898e+02 7.6552368898e+02 0.0000000000e+00 0.0000e+00 -1.0000e+00
        2 -1    0    0  502    0 +0.0000000000e+00 -0.0000000000e+00 -5.1050994097e+01 5.1050994097e+01 0.0000000000e+00 0.0000e+00 1.0000e+00
        6  1    1    2  502    0 -4.0048816740e+01 +8.5547563985e+01 +3.8852092728e+02 4.3566019368e+02 1.7300000000e+02 0.0000e+00 -1.0000e+00
       -6  1    1    2    0  501 +4.0048816740e+01 -8.5547563985e+01 +3.2595176760e+02 3.8091448939e+02 1.7300000000e+02 0.0000e+00 -1.0000e+00
<mgrwt>
<rscale>  2 0.19710731E+03</rscale>
<asrwt>0</asrwt>
<pdfrwt beam="2">  1        2 0.78539996E-02 0.19710731E+03</pdfrwt>
<pdfrwt beam="1">  1       -2 0.11777287E+00 0.19710731E+03</pdfrwt>
<totfact> 0.50267393E+02</totfact>
</mgrwt>
<rwgt>
<wgt id='1'> +6.0620114e+02 </wgt>
<wgt id='2'> +5.9648090e+02 </wgt>
<wgt id='3'> +5.0481800e+02 </wgt>
<wgt id='4'> +6.0620114e+02 </wgt>
<wgt id='5'> +5.0446294e+02 </wgt>
<wgt id='6'> +6.1876402e+02 </wgt>
<wgt id='7'> +6.0836419e+02 </wgt>
<wgt id='8'> +5.1095766e+02 </wgt>
<wgt id='9'> +6.1876401e+02 </wgt>
<wgt id='10'> +5.1058201e+02 </wgt>
<wgt id='11'> +6.2628951e+02 </wgt>
<wgt id='12'> +6.1537940e+02 </wgt>
<wgt id='13'> +5.1380504e+02 </wgt>
<wgt id='14'> +6.2628950e+02 </wgt>
<wgt id='15'> +5.1341497e+02 </wgt>
<wgt id='16'> +4.9456859e+02 </wgt>
<wgt id='17'> +4.8819154e+02 </wgt>
<wgt id='18'> +4.2526470e+02 </wgt>
<wgt id='19'> +4.9456859e+02 </wgt>
<wgt id='20'> +4.2499670e+02 </wgt>
<wgt id='21'> +4.9791745e+02 </wgt>
<wgt id='22'> +4.3043683e+02 </wgt>
<wgt id='23'> +5.0481800e+02 </wgt>
<wgt id='24'> +4.3015186e+02 </wgt>
<wgt id='25'> +5.1095766e+02 </wgt>
<wgt id='26'> +5.0365907e+02 </wgt>
<wgt id='27'> +4.3283549e+02 </wgt>
<wgt id='28'> +5.1095766e+02 </wgt>
<wgt id='29'> +4.3253855e+02 </wgt>
<wgt id='30'> +4.1663048e+02 </wgt>
<wgt id='31'> +4.1178938e+02 </wgt>
<wgt id='32'> +3.6310138e+02 </wgt>
<wgt id='33'> +4.1663048e+02 </wgt>
<wgt id='34'> +3.6289185e+02 </wgt>
<wgt id='35'> +4.2526470e+02 </wgt>
<wgt id='36'> +4.1999318e+02 </wgt>
<wgt id='37'> +3.6751746e+02 </wgt>
<wgt id='38'> +4.2526470e+02 </wgt>
<wgt id='39'> +3.6729369e+02 </wgt>
<wgt id='40'> +4.3043683e+02 </wgt>
<wgt id='41'> +4.2483623e+02 </wgt>
<wgt id='42'> +3.6956550e+02 </wgt>
<wgt id='43'> +4.3043683e+02 </wgt>
<wgt id='44'> +3.6933161e+02 </wgt>
<wgt id='45'> +5.0481800e+02 </wgt>
<wgt id='46'> +5.1735478e+02 </wgt>
<wgt id='47'> +4.9782346e+02 </wgt>
<wgt id='48'> +4.8262376e+02 </wgt>
<wgt id='49'> +5.4883449e+02 </wgt>
<wgt id='50'> +4.4532832e+02 </wgt>
<wgt id='51'> +4.6786964e+02 </wgt>
<wgt id='52'> +5.2926958e+02 </wgt>
<wgt id='53'> +5.4938924e+02 </wgt>
<wgt id='54'> +4.9614171e+02 </wgt>
<wgt id='55'> +4.9834585e+02 </wgt>
<wgt id='56'> +4.8311436e+02 </wgt>
<wgt id='57'> +4.2082079e+02 </wgt>
<wgt id='58'> +6.0601048e+02 </wgt>
<wgt id='59'> +5.3948418e+02 </wgt>
<wgt id='60'> +5.0453953e+02 </wgt>
<wgt id='61'> +4.3616703e+02 </wgt>
<wgt id='62'> +4.9963615e+02 </wgt>
<wgt id='63'> +5.2473215e+02 </wgt>
<wgt id='64'> +4.6545898e+02 </wgt>
<wgt id='65'> +4.5490984e+02 </wgt>
<wgt id='66'> +4.6616513e+02 </wgt>
<wgt id='67'> +5.3466036e+02 </wgt>
<wgt id='68'> +4.6464348e+02 </wgt>
<wgt id='69'> +4.5779539e+02 </wgt>
<wgt id='70'> +5.9430510e+02 </wgt>
<wgt id='71'> +4.5943036e+02 </wgt>
<wgt id='72'> +4.5314386e+02 </wgt>
<wgt id='73'> +5.5164449e+02 </wgt>
<wgt id='74'> +4.9194029e+02 </wgt>
<wgt id='75'> +4.6179425e+02 </wgt>
<wgt id='76'> +4.9374288e+02 </wgt>
<wgt id='77'> +4.9663480e+02 </wgt>
<wgt id='78'> +4.7304843e+02 </wgt>
<wgt id='79'> +5.1580448e+02 </wgt>
<wgt id='80'> +4.3970323e+02 </wgt>
<wgt id='81'> +5.4407030e+02 </wgt>
<wgt id='82'> +5.3252313e+02 </wgt>
<wgt id='83'> +4.9552980e+02 </wgt>
<wgt id='84'> +5.2989244e+02 </wgt>
<wgt id='85'> +5.1330078e+02 </wgt>
<wgt id='86'> +5.9287622e+02 </wgt>
<wgt id='87'> +5.3137432e+02 </wgt>
<wgt id='88'> +4.6535523e+02 </wgt>
<wgt id='89'> +6.4948477e+02 </wgt>
<wgt id='90'> +5.6658745e+02 </wgt>
<wgt id='91'> +4.5123790e+02 </wgt>
<wgt id='92'> +4.8584112e+02 </wgt>
<wgt id='93'> +4.8835354e+02 </wgt>
<wgt id='94'> +5.4383239e+02 </wgt>
<wgt id='95'> +4.6699092e+02 </wgt>
<wgt id='96'> +5.0810230e+02 </wgt>
<wgt id='97'> +4.9656632e+02 </wgt>
<wgt id='98'> +5.2603486e+02 </wgt>
<wgt id='99'> +5.3590528e+02 </wgt>
<wgt id='100'> +4.0806905e+02 </wgt>
<wgt id='101'> +5.3295713e+02 </wgt>
<wgt id='102'> +5.2589834e+02 </wgt>
<wgt id='103'> +5.7257128e+02 </wgt>
<wgt id='104'> +4.8879604e+02 </wgt>
<wgt id='105'> +5.2052499e+02 </wgt>
<wgt id='106'> +4.9876178e+02 </wgt>
<wgt id='107'> +5.3116989e+02 </wgt>
<wgt id='108'> +4.4014735e+02 </wgt>
<wgt id='109'> +4.9934894e+02 </wgt>
<wgt id='110'> +5.1883494e+02 </wgt>
<wgt id='111'> +4.7823209e+02 </wgt>
<wgt id='112'> +4.3206807e+02 </wgt>
<wgt id='113'> +5.1137588e+02 </wgt>
<wgt id='114'> +5.0265460e+02 </wgt>
<wgt id='115'> +4.1868155e+02 </wgt>
<wgt id='116'> +5.3104102e+02 </wgt>
<wgt id='117'> +4.5498537e+02 </wgt>
<wgt id='118'> +5.1413993e+02 </wgt>
<wgt id='119'> +5.6626960e+02 </wgt>
<wgt id='120'> +5.0730117e+02 </wgt>
<wgt id='121'> +5.2298869e+02 </wgt>
<wgt id='122'> +5.0671871e+02 </wgt>
<wgt id='123'> +5.2498370e+02 </wgt>
<wgt id='124'> +4.9322292e+02 </wgt>
<wgt id='125'> +4.7710380e+02 </wgt>
<wgt id='126'> +5.1969063e+02 </wgt>
<wgt id='127'> +5.4711916e+02 </wgt>
<wgt id='128'> +4.8760831e+02 </wgt>
<wgt id='129'> +5.5021698e+02 </wgt>
<wgt id='130'> +4.1787166e+02 </wgt>
<wgt id='131'> +5.4545584e+02 </wgt>
<wgt id='132'> +5.0144293e+02 </wgt>
<wgt id='133'> +6.4554055e+02 </wgt>
<wgt id='134'> +4.5419217e+02 </wgt>
<wgt id='135'> +4.6266175e+02 </wgt>
<wgt id='136'> +5.6491801e+02 </wgt>
<wgt id='137'> +5.1105346e+02 </wgt>
<wgt id='138'> +4.7449133e+02 </wgt>
<wgt id='139'> +6.1416384e+02 </wgt>
<wgt id='140'> +4.5625952e+02 </wgt>
<wgt id='141'> +5.2246031e+02 </wgt>
<wgt id='142'> +4.2182845e+02 </wgt>
<wgt id='143'> +5.2339886e+02 </wgt>
<wgt id='144'> +4.9863507e+02 </wgt>
<wgt id='145'> +5.4203090e+02 </wgt>
</rwgt>
</event>
<event>
 4      1 +5.0481800e+02 2.54055500e+02 7.54677100e-03 1.11076800e-01
       21 -1    0    0  501  502 +0.0000000000e+00 +0.0000000000e+00 +9.5142122956e+01 9.5142122956e+01 0.0000000000e+00 0.0000e+00 1.0000e+00
       21 -1    0    0  502  503 -0.0000000000e+00 -0.0000000000e+00 -7.3618126498e+02 7.3618126498e+02 0.0000000000e+00 0.0000e+00 -1.0000e+00
        6  1    1    2  501    0 +1.1250956331e+02 -1.4817820885e+02 -2.0406666227e+02 3.2586406072e+02 1.7300000000e+02 0.0000e+00 -1.0000e+00
       -6  1    1    2    0  503 -1.1250956331e+02 +1.4817820885e+02 -4.3697247975e+02 5.0545932722e+02 1.7300000000e+02 0.0000e+00 -1.0000e+00
<mgrwt>
<rscale>  2 0.25405547E+03</rscale>
<asrwt>0</asrwt>
<pdfrwt beam="1">  1       21 0.14637250E-01 0.25405547E+03</pdfrwt>
<pdfrwt beam="2">  1       21 0.11325865E+00 0.25405547E+03</pdfrwt>
<totfact> 0.24128038E+04</totfact>
</mgrwt>
<rwgt>
<wgt id='1'> +6.5891710e+02 </wgt>
<wgt id='2'> +5.4344910e+02 </wgt>
<wgt id='3'> +5.0481800e+02 </wgt>
<wgt id='4'> +6.5891709e+02 </wgt>
<wgt id='5'> +4.9720625e+02 </wgt>
<wgt id='6'> +6.1036079e+02 </wgt>
<wgt id='7'> +4.9934556e+02 </wgt>
<wgt id='8'> +4.6406073e+02 </wgt>
<wgt id='9'> +6.1036079e+02 </wgt>
<wgt id='10'> +4.5709556e+02 </wgt>
<wgt id='11'> +5.6108236e+02 </wgt>
<wgt id='12'> +4.5950428e+02 </wgt>
<wgt id='13'> +4.2724733e+02 </wgt>
<wgt id='14'> +5.6108236e+02 </wgt>
<wgt id='15'> +4.2088033e+02 </wgt>
<wgt id='16'> +5.4497801e+02 </wgt>
<wgt id='17'> +4.5839187e+02 </wgt>
<wgt id='18'> +4.2744879e+02 </wgt>
<wgt id='19'> +5.4497801e+02 </wgt>
<wgt id='20'> +4.2134487e+02 </wgt>
<wgt id='21'> +4.2119114e+02 </wgt>
<wgt id='22'> +3.9293805e+02 </wgt>
<wgt id='23'> +5.0481800e+02 </wgt>
<wgt id='24'> +3.8735408e+02 </wgt>
<wgt id='25'> +4.6406073e+02 </wgt>
<wgt id='26'> +3.8758556e+02 </wgt>
<wgt id='27'> +3.6176672e+02 </wgt>
<wgt id='28'> +4.6406073e+02 </wgt>
<wgt id='29'> +3.5666440e+02 </wgt>
<wgt id='30'> +4.6145382e+02 </wgt>
<wgt id='31'> +3.9179171e+02 </wgt>
<wgt id='32'> +3.6659435e+02 </wgt>
<wgt id='33'> +4.6145382e+02 </wgt>
<wgt id='34'> +3.6160889e+02 </wgt>
<wgt id='35'> +4.2744879e+02 </wgt>
<wgt id='36'> +3.5999590e+02 </wgt>
<wgt id='37'> +3.3699678e+02 </wgt>
<wgt id='38'> +4.2744879e+02 </wgt>
<wgt id='39'> +3.3243714e+02 </wgt>
<wgt id='40'> +3.9293805e+02 </wgt>
<wgt id='41'> +3.3127291e+02 </wgt>
<wgt id='42'> +3.1026322e+02 </wgt>
<wgt id='43'> +3.9293805e+02 </wgt>
<wgt id='44'> +3.0609847e+02 </wgt>
<wgt id='45'> +5.0481800e+02 </wgt>
<wgt id='46'> +5.1732553e+02 </wgt>
<wgt id='47'> +5.2093473e+02 </wgt>
<wgt id='48'> +5.0815597e+02 </wgt>
<wgt id='49'> +4.9166492e+02 </wgt>
<wgt id='50'> +6.0348700e+02 </wgt>
<wgt id='51'> +4.8960974e+02 </wgt>
<wgt id='52'> +4.9996963e+02 </wgt>
<wgt id='53'> +4.9883777e+02 </wgt>
<wgt id='54'> +5.1698304e+02 </wgt>
<wgt id='55'> +4.8984458e+02 </wgt>
<wgt id='56'> +4.6281670e+02 </wgt>
<wgt id='57'> +5.1169155e+02 </wgt>
<wgt id='58'> +4.8716214e+02 </wgt>
<wgt id='59'> +5.2835547e+02 </wgt>
<wgt id='60'> +5.0399428e+02 </wgt>
<wgt id='61'> +4.4095318e+02 </wgt>
<wgt id='62'> +4.9114315e+02 </wgt>
<wgt id='63'> +5.1047911e+02 </wgt>
<wgt id='64'> +4.9635452e+02 </wgt>
<wgt id='65'> +5.4806632e+02 </wgt>
<wgt id='66'> +4.9856911e+02 </wgt>
<wgt id='67'> +5.0747593e+02 </wgt>
<wgt id='68'> +5.6388641e+02 </wgt>
<wgt id='69'> +5.1145151e+02 </wgt>
<wgt id='70'> +5.0336353e+02 </wgt>
<wgt id='71'> +5.0429072e+02 </wgt>
<wgt id='72'> +4.8099975e+02 </wgt>
<wgt id='73'> +4.8266187e+02 </wgt>
<wgt id='74'> +5.4036182e+02 </wgt>
<wgt id='75'> +5.2017387e+02 </wgt>
<wgt id='76'> +5.0178726e+02 </wgt>
<wgt id='77'> +4.9334328e+02 </wgt>
<wgt id='78'> +4.7478759e+02 </wgt>
<wgt id='79'> +5.0481600e+02 </wgt>
<wgt id='80'> +4.8469635e+02 </wgt>
<wgt id='81'> +4.9830583e+02 </wgt>
<wgt id='82'> +4.9386917e+02 </wgt>
<wgt id='83'> +5.0950992e+02 </wgt>
<wgt id='84'> +5.3584286e+02 </wgt>
<wgt id='85'> +5.0522610e+02 </wgt>
<wgt id='86'> +5.1097266e+02 </wgt>
<wgt id='87'> +5.0724790e+02 </wgt>
<wgt id='88'> +5.0556749e+02 </wgt>
<wgt id='89'> +4.9995988e+02 </wgt>
<wgt id='90'> +5.0888032e+02 </wgt>
<wgt id='91'> +5.0542754e+02 </wgt>
<wgt id='92'> +4.6125962e+02 </wgt>
<wgt id='93'> +5.0379492e+02 </wgt>
<wgt id='94'> +4.8547829e+02 </wgt>
<wgt id='95'> +5.0406560e+02 </wgt>
<wgt id='96'> +5.3903539e+02 </wgt>
<wgt id='97'> +4.9261000e+02 </wgt>
<wgt id='98'> +5.0123364e+02 </wgt>
<wgt id='99'> +4.6976341e+02 </wgt>
<wgt id='100'> +4.5595221e+02 </wgt>
<wgt id='101'> +5.6362190e+02 </wgt>
<wgt id='102'> +5.2841540e+02 </wgt>
<wgt id='103'> +5.3459194e+02 </wgt>
<wgt id='104'> +5.1499902e+02 </wgt>
<wgt id='105'> +5.1978010e+02 </wgt>
<wgt id='106'> +4.6369778e+02 </wgt>
<wgt id='107'> +4.7981299e+02 </wgt>
<wgt id='108'> +4.4916112e+02 </wgt>
<wgt id='109'> +4.7907162e+02 </wgt>
<wgt id='110'> +4.9442278e+02 </wgt>
<wgt id='111'> +4.9148646e+02 </wgt>
<wgt id='112'> +4.8538374e+02 </wgt>
<wgt id='113'> +4.7595779e+02 </wgt>
<wgt id='114'> +4.9837291e+02 </wgt>
<wgt id='115'> +4.7641864e+02 </wgt>
<wgt id='116'> +5.2850940e+02 </wgt>
<wgt id='117'> +4.9789857e+02 </wgt>
<wgt id='118'> +5.2948280e+02 </wgt>
<wgt id='119'> +5.0122939e+02 </wgt>
<wgt id='120'> +4.9636261e+02 </wgt>
<wgt id='121'> +4.9647505e+02 </wgt>
<wgt id='122'> +4.9863947e+02 </wgt>
<wgt id='123'> +5.0540912e+02 </wgt>
<wgt id='124'> +5.6177428e+02 </wgt>
<wgt id='125'> +5.7396347e+02 </wgt>
<wgt id='126'> +5.1667406e+02 </wgt>
<wgt id='127'> +5.1295228e+02 </wgt>
<wgt id='128'> +4.6280805e+02 </wgt>
<wgt id='129'> +5.5775760e+02 </wgt>
<wgt id='130'> +4.9843780e+02 </wgt>
<wgt id='131'> +5.1620520e+02 </wgt>
<wgt id='132'> +5.3433865e+02 </wgt>
<wgt id='133'> +5.2453445e+02 </wgt>
<wgt id='134'> +4.9711937e+02 </wgt>
<wgt id='135'> +5.0687089e+02 </wgt>
<wgt id='136'> +5.3335945e+02 </wgt>
<wgt id='137'> +4.9061604e+02 </wgt>
<wgt id='138'> +4.8298835e+02 </wgt>
<wgt id='139'> +5.2007030e+02 </wgt>
<wgt id='140'> +5.1416611e+02 </wgt>
<wgt id='141'> +5.2190494e+02 </wgt>
<wgt id='142'> +4.5860233e+02 </wgt>
<wgt id='143'> +5.1574652e+02 </wgt>
<wgt id='144'> +4.8796329e+02 </wgt>
<wgt id='145'> +4.9543264e+02 </wgt>
</rwgt>
</event>
<event>
 4      1 +5.0481800e+02 1.85210200e+02 7.54677100e-03 1.16285400e-01
       21 -1    0    0  501  502 +0.0000000000e+00 +0.0000000000e+00 +9.9818913437e+01 9.9818913437e+01 0.0000000000e+00 0.0000e+00 -1.0000e+00
       21 -1    0    0  502  503 -0.0000000000e+00 -0.0000000000e+00 -6.2312260911e+02 6.2312260911e+02 0.0000000000e+00 0.0000e+00 -1.0000e+00
        6  1    1    2  501    0 -3.9961772915e+01 -5.2695946956e+01 -1.9573604290e+01 1.8624159607e+02 1.7300000000e+02 0.0000e+00 -1.0000e+00
       -6  1    1    2    0  503 +3.9961772915e+01 +5.2695946956e+01 -5.0373009138e+02 5.3669992648e+02 1.7300000000e+02 0.0000e+00 -1.0000e+00
<mgrwt>
<rscale>  2 0.18521017E+03</rscale>
<asrwt>0</asrwt>
<pdfrwt beam="1">  1       21 0.15356756E-01 0.18521017E+03</pdfrwt>
<pdfrwt beam="2">  1       21 0.95865018E-01 0.18521017E+03</pdfrwt>
<totfact> 0.34220969E+04</totfact>
</mgrwt>
<rwgt>
<wgt id='1'> +6.5929468e+02 </wgt>
<wgt id='2'> +5.8749806e+02 </wgt>
<wgt id='3'> +5.0481800e+02 </wgt>
<wgt id='4'> +6.5929469e+02 </wgt>
<wgt id='5'> +4.5246116e+02 </wgt>
<wgt id='6'> +6.2060725e+02 </wgt>
<wgt id='7'> +5.4844422e+02 </wgt>
<wgt id='8'> +4.6716636e+02 </wgt>
<wgt id='9'> +6.2060725e+02 </wgt>
<wgt id='10'> +4.1865338e+02 </wgt>
<wgt id='11'> +5.7431951e+02 </wgt>
<wgt id='12'> +5.0746299e+02 </wgt>
<wgt id='13'> +4.3246412e+02 </wgt>
<wgt id='14'> +5.7431951e+02 </wgt>
<wgt id='15'> +3.8775324e+02 </wgt>
<wgt id='16'> +5.3628736e+02 </wgt>
<wgt id='17'> +4.8535262e+02 </wgt>
<wgt id='18'> +4.2452390e+02 </wgt>
<wgt id='19'> +5.3628736e+02 </wgt>
<wgt id='20'> +3.8297517e+02 </wgt>
<wgt id='21'> +4.5308887e+02 </wgt>
<wgt id='22'> +3.9286095e+02 </wgt>
<wgt id='23'> +5.0481800e+02 </wgt>
<wgt id='24'> +3.5435936e+02 </wgt>
<wgt id='25'> +4.6716635e+02 </wgt>
<wgt id='26'> +4.1923285e+02 </wgt>
<wgt id='27'> +3.6367830e+02 </wgt>
<wgt id='28'> +4.6716636e+02 </wgt>
<wgt id='29'> +3.2820466e+02 </wgt>
<wgt id='30'> +4.5098788e+02 </wgt>
<wgt id='31'> +4.1078410e+02 </wgt>
<wgt id='32'> +3.6205989e+02 </wgt>
<wgt id='33'> +4.5098788e+02 </wgt>
<wgt id='34'> +3.2834829e+02 </wgt>
<wgt id='35'> +4.2452390e+02 </wgt>
<wgt id='36'> +3.8347729e+02 </wgt>
<wgt id='37'> +3.3505580e+02 </wgt>
<wgt id='38'> +4.2452390e+02 </wgt>
<wgt id='39'> +3.0381419e+02 </wgt>
<wgt id='40'> +3.9286095e+02 </wgt>
<wgt id='41'> +3.5482284e+02 </wgt>
<wgt id='42'> +3.1016705e+02 </wgt>
<wgt id='43'> +3.9286095e+02 </wgt>
<wgt id='44'> +2.8139015e+02 </wgt>
<wgt id='45'> +5.0481800e+02 </wgt>
<wgt id='46'> +5.1425250e+02 </wgt>
<wgt id='47'> +5.2119772e+02 </wgt>
<wgt id='48'> +5.0803831e+02 </wgt>
<wgt id='49'> +4.9702193e+02 </wgt>
<wgt id='50'> +6.0134854e+02 </wgt>
<wgt id='51'> +4.9211530e+02 </wgt>
<wgt id='52'> +5.0316775e+02 </wgt>
<wgt id='53'> +5.0043040e+02 </wgt>
<wgt id='54'> +5.1276831e+02 </wgt>
<wgt id='55'> +4.7437140e+02 </wgt>
<wgt id='56'> +4.6192476e+02 </wgt>
<wgt id='57'> +5.0477043e+02 </wgt>
<wgt id='58'> +4.9529880e+02 </wgt>
<wgt id='59'> +5.1994351e+02 </wgt>
<wgt id='60'> +5.0022732e+02 </wgt>
<wgt id='61'> +4.5047103e+02 </wgt>
<wgt id='62'> +4.9490676e+02 </wgt>
<wgt id='63'> +5.0725409e+02 </wgt>
<wgt id='64'> +4.9589499e+02 </wgt>
<wgt id='65'> +5.6600345e+02 </wgt>
<wgt id='66'> +4.9569582e+02 </wgt>
<wgt id='67'> +5.0797841e+02 </wgt>
<wgt id='68'> +5.5545493e+02 </wgt>
<wgt id='69'> +5.0330001e+02 </wgt>
<wgt id='70'> +4.9863263e+02 </wgt>
<wgt id='71'> +5.0962469e+02 </wgt>
<wgt id='72'> +4.8507768e+02 </wgt>
<wgt id='73'> +4.8913020e+02 </wgt>
<wgt id='74'> +5.3294900e+02 </wgt>
<wgt id='75'> +5.1710603e+02 </wgt>
<wgt id='76'> +4.9734277e+02 </wgt>
<wgt id='77'> +4.9306148e+02 </wgt>
<wgt id='78'> +4.8486785e+02 </wgt>
<wgt id='79'> +4.9717789e+02 </wgt>
<wgt id='80'> +4.9129170e+02 </wgt>
<wgt id='81'> +4.9563914e+02 </wgt>
<wgt id='82'> +5.0039971e+02 </wgt>
<wgt id='83'> +5.1158710e+02 </wgt>
<wgt id='84'> +5.4370811e+02 </wgt>
<wgt id='85'> +5.1574535e+02 </wgt>
<wgt id='86'> +5.0712376e+02 </wgt>
<wgt id='87'> +5.0757984e+02 </wgt>
<wgt id='88'> +5.0811257e+02 </wgt>
<wgt id='89'> +5.1036594e+02 </wgt>
<wgt id='90'> +5.1295819e+02 </wgt>
<wgt id='91'> +5.1847252e+02 </wgt>
<wgt id='92'> +4.6092322e+02 </wgt>
<wgt id='93'> +5.0156301e+02 </wgt>
<wgt id='94'> +4.9162085e+02 </wgt>
<wgt id='95'> +4.9679351e+02 </wgt>
<wgt id='96'> +5.4187568e+02 </wgt>
<wgt id='97'> +5.0021488e+02 </wgt>
<wgt id='98'> +4.9298468e+02 </wgt>
<wgt id='99'> +4.7862221e+02 </wgt>
<wgt id='100'> +4.7258231e+02 </wgt>
<wgt id='101'> +5.5425841e+02 </wgt>
<wgt id='102'> +5.1580657e+02 </wgt>
<wgt id='103'> +5.4324646e+02 </wgt>
<wgt id='104'> +5.0954022e+02 </wgt>
<wgt id='105'> +5.2159732e+02 </wgt>
<wgt id='106'> +4.6108162e+02 </wgt>
<wgt id='107'> +4.8365086e+02 </wgt>
<wgt id='108'> +4.4660314e+02 </wgt>
<wgt id='109'> +4.7550363e+02 </wgt>
<wgt id='110'> +5.0009063e+02 </wgt>
<wgt id='111'> +4.9103671e+02 </wgt>
<wgt id='112'> +4.7976447e+02 </wgt>
<wgt id='113'> +4.6826810e+02 </wgt>
<wgt id='114'> +4.9667508e+02 </wgt>
<wgt id='115'> +4.8244451e+02 </wgt>
<wgt id='116'> +5.2041541e+02 </wgt>
<wgt id='117'> +5.0096572e+02 </wgt>
<wgt id='118'> +5.2759890e+02 </wgt>
<wgt id='119'> +4.9309301e+02 </wgt>
<wgt id='120'> +4.9466003e+02 </wgt>
<wgt id='121'> +4.9472753e+02 </wgt>
<wgt id='122'> +4.9884639e+02 </wgt>
<wgt id='123'> +5.0811756e+02 </wgt>
<wgt id='124'> +5.5624474e+02 </wgt>
<wgt id='125'> +5.6194118e+02 </wgt>
<wgt id='126'> +5.2040178e+02 </wgt>
<wgt id='127'> +5.1745295e+02 </wgt>
<wgt id='128'> +4.6060765e+02 </wgt>
<wgt id='129'> +5.6587667e+02 </wgt>
<wgt id='130'> +5.0176658e+02 </wgt>
<wgt id='131'> +5.2703479e+02 </wgt>
<wgt id='132'> +5.2548325e+02 </wgt>
<wgt id='133'> +5.1693407e+02 </wgt>
<wgt id='134'> +4.8893101e+02 </wgt>
<wgt id='135'> +5.1201371e+02 </wgt>
<wgt id='136'> +5.1681888e+02 </wgt>
<wgt id='137'> +4.8324628e+02 </wgt>
<wgt id='138'> +4.7271462e+02 </wgt>
<wgt id='139'> +5.1940015e+02 </wgt>
<wgt id='140'> +5.2172020e+02 </wgt>
<wgt id='141'> +5.1330857e+02 </wgt>
<wgt id='142'> +4.7835686e+02 </wgt>
<wgt id='143'> +5.1250026e+02 </wgt>
<wgt id='144'> +4.9475768e+02 </wgt>
<wgt id='145'> +5.0075415e+02 </wgt>
</rwgt>
</event>
<event>
 4      1 +5.0481800e+02 2.03360400e+02 7.54677100e-03 1.14693400e-01
       21 -1    0    0  501  502 +0.0000000000e+00 +0.0000000000e+00 +4.3977731072e+02 4.3977731072e+02 0.0000000000e+00 0.0000e+00 -1.0000e+00
       21 -1    0    0  502  503 -0.0000000000e+00 -0.0000000000e+00 -1.1396949530e+02 1.1396949530e+02 0.0000000000e+00 0.0000e+00 -1.0000e+00
        6  1    1    2  501    0 +9.9737979779e+01 -3.8455143251e+01 +2.7869221294e+02 3.4499972784e+02 1.7300000000e+02 0.0000e+00 -1.0000e+00
       -6  1    1    2    0  503 -9.9737979779e+01 +3.8455143251e+01 +4.7115602485e+01 2.0874707818e+02 1.7300000000e+02 0.0000e+00 -1.0000e+00
<mgrwt>
<rscale>  2 0.20336043E+03</rscale>
<asrwt>0</asrwt>
<pdfrwt beam="1">  1       21 0.67658047E-01 0.20336043E+03</pdfrwt>
<pdfrwt beam="2">  1       21 0.17533769E-01 0.20336043E+03</pdfrwt>
<totfact> 0.58547676E+04</totfact>
</mgrwt>
<rwgt>
<wgt id='1'> +6.4998755e+02 </wgt>
<wgt id='2'> +5.5336464e+02 </wgt>
<wgt id='3'> +5.0481800e+02 </wgt>
<wgt id='4'> +6.4998756e+02 </wgt>
<wgt id='5'> +4.8803183e+02 </wgt>
<wgt id='6'> +6.1773017e+02 </wgt>
<wgt id='7'> +5.1907357e+02 </wgt>
<wgt id='8'> +4.7205867e+02 </wgt>
<wgt id='9'> +6.1773017e+02 </wgt>
<wgt id='10'> +4.5638026e+02 </wgt>
<wgt id='11'> +5.7764359e+02 </wgt>
<wgt id='12'> +4.8536632e+02 </wgt>
<wgt id='13'> +4.4142872e+02 </wgt>
<wgt id='14'> +5.7764359e+02 </wgt>
<wgt id='15'> +4.2678849e+02 </wgt>
<wgt id='16'> +5.3117920e+02 </wgt>
<wgt id='17'> +4.6260271e+02 </wgt>
<wgt id='18'> +4.2557450e+02 </wgt>
<wgt id='19'> +5.3117920e+02 </wgt>
<wgt id='20'> +4.1219322e+02 </wgt>
<wgt id='21'> +4.3393600e+02 </wgt>
<wgt id='22'> +3.9795755e+02 </wgt>
<wgt id='23'> +5.0481800e+02 </wgt>
<wgt id='24'> +3.8546020e+02 </wgt>
<wgt id='25'> +4.7205867e+02 </wgt>
<wgt id='26'> +4.0575737e+02 </wgt>
<wgt id='27'> +3.7213571e+02 </wgt>
<wgt id='28'> +4.7205867e+02 </wgt>
<wgt id='29'> +3.6046690e+02 </wgt>
<wgt id='30'> +4.4779766e+02 </wgt>
<wgt id='31'> +3.9333566e+02 </wgt>
<wgt id='32'> +3.6357074e+02 </wgt>
<wgt id='33'> +4.4779767e+02 </wgt>
<wgt id='34'> +3.5273821e+02 </wgt>
<wgt id='35'> +4.2557450e+02 </wgt>
<wgt id='36'> +3.6896131e+02 </wgt>
<wgt id='37'> +3.3997742e+02 </wgt>
<wgt id='38'> +4.2557450e+02 </wgt>
<wgt id='39'> +3.2986118e+02 </wgt>
<wgt id='40'> +3.9795754e+02 </wgt>
<wgt id='41'> +3.4500196e+02 </wgt>
<wgt id='42'> +3.1791768e+02 </wgt>
<wgt id='43'> +3.9795755e+02 </wgt>
<wgt id='44'> +3.0847293e+02 </wgt>
<wgt id='45'> +5.0481800e+02 </wgt>
<wgt id='46'> +5.0863974e+02 </wgt>
<wgt id='47'> +5.2197270e+02 </wgt>
<wgt id='48'> +5.0744618e+02 </wgt>
<wgt id='49'> +5.0186593e+02 </wgt>
<wgt id='50'> +5.9249220e+02 </wgt>
<wgt id='51'> +4.9458577e+02 </wgt>
<wgt id='52'> +5.0319411e+02 </wgt>
<wgt id='53'> +5.0620853e+02 </wgt>
<wgt id='54'> +5.0885807e+02 </wgt>
<wgt id='55'> +4.5972341e+02 </wgt>
<wgt id='56'> +4.6668887e+02 </wgt>
<wgt id='57'> +4.9618515e+02 </wgt>
<wgt id='58'> +5.0401746e+02 </wgt>
<wgt id='59'> +5.0620791e+02 </wgt>
<wgt id='60'> +4.9149091e+02 </wgt>
<wgt id='61'> +4.7490446e+02 </wgt>
<wgt id='62'> +4.9768269e+02 </wgt>
<wgt id='63'> +5.0552528e+02 </wgt>
<wgt id='64'> +4.9768693e+02 </wgt>
<wgt id='65'> +5.8342318e+02 </wgt>
<wgt id='66'> +4.9397319e+02 </wgt>
<wgt id='67'> +5.0889277e+02 </wgt>
<wgt id='68'> +5.4575919e+02 </wgt>
<wgt id='69'> +4.9621235e+02 </wgt>
<wgt id='70'> +4.9693032e+02 </wgt>
<wgt id='71'> +5.1328330e+02 </wgt>
<wgt id='72'> +4.8902613e+02 </wgt>
<wgt id='73'> +4.9565688e+02 </wgt>
<wgt id='74'> +5.2420092e+02 </wgt>
<wgt id='75'> +5.1589467e+02 </wgt>
<wgt id='76'> +4.9276969e+02 </wgt>
<wgt id='77'> +4.8981617e+02 </wgt>
<wgt id='78'> +4.9785002e+02 </wgt>
<wgt id='79'> +4.8925420e+02 </wgt>
<wgt id='80'> +4.9761580e+02 </wgt>
<wgt id='81'> +4.9538425e+02 </wgt>
<wgt id='82'> +5.1162132e+02 </wgt>
<wgt id='83'> +5.1387609e+02 </wgt>
<wgt id='84'> +5.5018965e+02 </wgt>
<wgt id='85'> +5.2572834e+02 </wgt>
<wgt id='86'> +5.0340304e+02 </wgt>
<wgt id='87'> +5.0615865e+02 </wgt>
<wgt id='88'> +5.1131114e+02 </wgt>
<wgt id='89'> +5.1571531e+02 </wgt>
<wgt id='90'> +5.1242936e+02 </wgt>
<wgt id='91'> +5.3078488e+02 </wgt>
<wgt id='92'> +4.6372555e+02 </wgt>
<wgt id='93'> +4.9842312e+02 </wgt>
<wgt id='94'> +4.9885315e+02 </wgt>
<wgt id='95'> +4.8854591e+02 </wgt>
<wgt id='96'> +5.4384342e+02 </wgt>
<wgt id='97'> +5.0838491e+02 </wgt>
<wgt id='98'> +4.8550958e+02 </wgt>
<wgt id='99'> +4.8708804e+02 </wgt>
<wgt id='100'> +4.9166069e+02 </wgt>
<wgt id='101'> +5.3886393e+02 </wgt>
<wgt id='102'> +4.9969618e+02 </wgt>
<wgt id='103'> +5.4686149e+02 </wgt>
<wgt id='104'> +5.0547075e+02 </wgt>
<wgt id='105'> +5.2321470e+02 </wgt>
<wgt id='106'> +4.6319701e+02 </wgt>
<wgt id='107'> +4.9269020e+02 </wgt>
<wgt id='108'> +4.5012618e+02 </wgt>
<wgt id='109'> +4.7441791e+02 </wgt>
<wgt id='110'> +5.0424032e+02 </wgt>
<wgt id='111'> +4.9135867e+02 </wgt>
<wgt id='112'> +4.7985797e+02 </wgt>
<wgt id='113'> +4.6494613e+02 </wgt>
<wgt id='114'> +4.9939517e+02 </wgt>
<wgt id='115'> +4.9568213e+02 </wgt>
<wgt id='116'> +5.1009815e+02 </wgt>
<wgt id='117'> +5.0704795e+02 </wgt>
<wgt id='118'> +5.2147152e+02 </wgt>
<wgt id='119'> +4.8739855e+02 </wgt>
<wgt id='120'> +4.9764236e+02 </wgt>
<wgt id='121'> +4.9208711e+02 </wgt>
<wgt id='122'> +4.9878780e+02 </wgt>
<wgt id='123'> +5.1018407e+02 </wgt>
<wgt id='124'> +5.4499864e+02 </wgt>
<wgt id='125'> +5.4703098e+02 </wgt>
<wgt id='126'> +5.2292103e+02 </wgt>
<wgt id='127'> +5.1934330e+02 </wgt>
<wgt id='128'> +4.6520629e+02 </wgt>
<wgt id='129'> +5.6931814e+02 </wgt>
<wgt id='130'> +5.0539754e+02 </wgt>
<wgt id='131'> +5.3580304e+02 </wgt>
<wgt id='132'> +5.0971675e+02 </wgt>
<wgt id='133'> +5.0697497e+02 </wgt>
<wgt id='134'> +4.8041124e+02 </wgt>
<wgt id='135'> +5.1591351e+02 </wgt>
<wgt id='136'> +4.9580118e+02 </wgt>
<wgt id='137'> +4.7825337e+02 </wgt>
<wgt id='138'> +4.6417486e+02 </wgt>
<wgt id='139'> +5.1640667e+02 </wgt>
<wgt id='140'> +5.3068125e+02 </wgt>
<wgt id='141'> +5.0648021e+02 </wgt>
<wgt id='142'> +4.9726055e+02 </wgt>
<wgt id='143'> +5.0560361e+02 </wgt>
<wgt id='144'> +5.0158433e+02 </wgt>
<wgt id='145'> +5.0508504e+02 </wgt>
</rwgt>
</event>
<event>
 4      1 +5.0481800e+02 2.83124400e+02 7.54677100e-03 1.09399500e-01
       21 -1    0    0  503  502 +0.0000000000e+00 +0.0000000000e+00 +8.0536533271e+01 8.0536533271e+01 0.0000000000e+00 0.0000e+00 1.0000e+00
       21 -1    0    0  501  503 -0.0000000000e+00 -0.0000000000e+00 -1.7198403336e+03 1.7198403336e+03 0.0000000000e+00 0.0000e+00 -1.0000e+00
        6  1    1    2  501    0 -6.3750960446e+01 -2.1486329976e+02 -1.4039243332e+03 1.4321881705e+03 1.7300000000e+02 0.0000e+00 -1.0000e+00
       -6  1    1    2    0  502 +6.3750960446e+01 +2.1486329976e+02 -2.3537946712e+02 3.6818869630e+02 1.7300000000e+02 0.0000e+00 1.0000e+00
<mgrwt>
<rscale>  2 0.28312439E+03</rscale>
<asrwt>0</asrwt>
<pdfrwt beam="1">  1       21 0.12390235E-01 0.28312439E+03</pdfrwt>
<pdfrwt beam="2">  1       21 0.26459084E+00 0.28312439E+03</pdfrwt>
<totfact> 0.27801562E+03</totfact>
</mgrwt>
<rwgt>
<wgt id='1'> +7.0542258e+02 </wgt>
<wgt id='2'> +5.4571781e+02 </wgt>
<wgt id='3'> +5.0481800e+02 </wgt>
<wgt id='4'> +7.0542258e+02 </wgt>
<wgt id='5'> +4.4525640e+02 </wgt>
<wgt id='6'> +6.0697789e+02 </wgt>
<wgt id='7'> +4.6999562e+02 </wgt>
<wgt id='8'> +4.3561982e+02 </wgt>
<wgt id='9'> +6.0697789e+02 </wgt>
<wgt id='10'> +3.8545113e+02 </wgt>
<wgt id='11'> +5.2377610e+02 </wgt>
<wgt id='12'> +4.0806149e+02 </wgt>
<wgt id='13'> +3.7893186e+02 </wgt>
<wgt id='14'> +5.2377610e+02 </wgt>
<wgt id='15'> +3.3632564e+02 </wgt>
<wgt id='16'> +5.8669355e+02 </wgt>
<wgt id='17'> +4.6154757e+02 </wgt>
<wgt id='18'> +4.2836424e+02 </wgt>
<wgt id='19'> +5.8669355e+02 </wgt>
<wgt id='20'> +3.7977439e+02 </wgt>
<wgt id='21'> +3.9750459e+02 </wgt>
<wgt id='22'> +3.6964600e+02 </wgt>
<wgt id='23'> +5.0481800e+02 </wgt>
<wgt id='24'> +3.2876443e+02 </wgt>
<wgt id='25'> +4.3561983e+02 </wgt>
<wgt id='26'> +3.4512304e+02 </wgt>
<wgt id='27'> +3.2154332e+02 </wgt>
<wgt id='28'> +4.3561982e+02 </wgt>
<wgt id='29'> +2.8686362e+02 </wgt>
<wgt id='30'> +4.9783989e+02 </wgt>
<wgt id='31'> +3.9544614e+02 </wgt>
<wgt id='32'> +3.6804754e+02 </wgt>
<wgt id='33'> +4.9783989e+02 </wgt>
<wgt id='34'> +3.2774447e+02 </wgt>
<wgt id='35'> +4.2836424e+02 </wgt>
<wgt id='36'> +3.4057520e+02 </wgt>
<wgt id='37'> +3.1759724e+02 </wgt>
<wgt id='38'> +4.2836424e+02 </wgt>
<wgt id='39'> +2.8372299e+02 </wgt>
<wgt id='40'> +3.6964600e+02 </wgt>
<wgt id='41'> +2.9569557e+02 </wgt>
<wgt id='42'> +2.7626776e+02 </wgt>
<wgt id='43'> +3.6964600e+02 </wgt>
<wgt id='44'> +2.4756268e+02 </wgt>
<wgt id='45'> +5.0481800e+02 </wgt>
<wgt id='46'> +5.1417424e+02 </wgt>
<wgt id='47'> +5.6654130e+02 </wgt>
<wgt id='48'> +5.0581089e+02 </wgt>
<wgt id='49'> +4.4734531e+02 </wgt>
<wgt id='50'> +6.0852360e+02 </wgt>
<wgt id='51'> +4.7239629e+02 </wgt>
<wgt id='52'> +4.3085545e+02 </wgt>
<wgt id='53'> +5.3926142e+02 </wgt>
<wgt id='54'> +5.3978814e+02 </wgt>
<wgt id='55'> +6.0378957e+02 </wgt>
<wgt id='56'> +4.8796210e+02 </wgt>
<wgt id='57'> +5.4255172e+02 </wgt>
<wgt id='58'> +4.3160598e+02 </wgt>
<wgt id='59'> +5.4460702e+02 </wgt>
<wgt id='60'> +4.8395044e+02 </wgt>
<wgt id='61'> +4.0132684e+02 </wgt>
<wgt id='62'> +4.4135541e+02 </wgt>
<wgt id='63'> +5.3884497e+02 </wgt>
<wgt id='64'> +5.0504346e+02 </wgt>
<wgt id='65'> +4.1992327e+02 </wgt>
<wgt id='66'> +5.2201638e+02 </wgt>
<wgt id='67'> +5.0542593e+02 </wgt>
<wgt id='68'> +6.9369266e+02 </wgt>
<wgt id='69'> +5.9289861e+02 </wgt>
<wgt id='70'> +6.1331733e+02 </wgt>
<wgt id='71'> +4.4249530e+02 </wgt>
<wgt id='72'> +4.2381892e+02 </wgt>
<wgt id='73'> +4.4110289e+02 </wgt>
<wgt id='74'> +6.3658350e+02 </wgt>
<wgt id='75'> +6.0736376e+02 </wgt>
<wgt id='76'> +5.1705820e+02 </wgt>
<wgt id='77'> +4.4680227e+02 </wgt>
<wgt id='78'> +4.1343793e+02 </wgt>
<wgt id='79'> +5.6775428e+02 </wgt>
<wgt id='80'> +4.0951705e+02 </wgt>
<wgt id='81'> +5.4849674e+02 </wgt>
<wgt id='82'> +5.0454702e+02 </wgt>
<wgt id='83'> +5.0639179e+02 </wgt>
<wgt id='84'> +4.6794619e+02 </wgt>
<wgt id='85'> +4.2914955e+02 </wgt>
<wgt id='86'> +5.5617632e+02 </wgt>
<wgt id='87'> +4.8143578e+02 </wgt>
<wgt id='88'> +5.1824147e+02 </wgt>
<wgt id='89'> +3.5610284e+02 </wgt>
<wgt id='90'> +4.2660632e+02 </wgt>
<wgt id='91'> +3.9708781e+02 </wgt>
<wgt id='92'> +4.7011572e+02 </wgt>
<wgt id='93'> +5.2166350e+02 </wgt>
<wgt id='94'> +4.4712668e+02 </wgt>
<wgt id='95'> +5.2373778e+02 </wgt>
<wgt id='96'> +5.2860614e+02 </wgt>
<wgt id='97'> +4.3290887e+02 </wgt>
<wgt id='98'> +5.9279686e+02 </wgt>
<wgt id='99'> +3.8808340e+02 </wgt>
<wgt id='100'> +3.3805033e+02 </wgt>
<wgt id='101'> +6.0660758e+02 </wgt>
<wgt id='102'> +5.8943841e+02 </wgt>
<wgt id='103'> +4.4394023e+02 </wgt>
<wgt id='104'> +5.6735241e+02 </wgt>
<wgt id='105'> +5.1420940e+02 </wgt>
<wgt id='106'> +5.0458396e+02 </wgt>
<wgt id='107'> +5.1053712e+02 </wgt>
<wgt id='108'> +4.6927474e+02 </wgt>
<wgt id='109'> +5.0042015e+02 </wgt>
<wgt id='110'> +4.2339968e+02 </wgt>
<wgt id='111'> +4.7791141e+02 </wgt>
<wgt id='112'> +5.2848836e+02 </wgt>
<wgt id='113'> +5.8526432e+02 </wgt>
<wgt id='114'> +5.0819003e+02 </wgt>
<wgt id='115'> +4.7682922e+02 </wgt>
<wgt id='116'> +5.7668483e+02 </wgt>
<wgt id='117'> +5.0989714e+02 </wgt>
<wgt id='118'> +5.0685057e+02 </wgt>
<wgt id='119'> +5.6295584e+02 </wgt>
<wgt id='120'> +5.0084298e+02 </wgt>
<wgt id='121'> +4.6823006e+02 </wgt>
<wgt id='122'> +4.8028105e+02 </wgt>
<wgt id='123'> +4.5924014e+02 </wgt>
<wgt id='124'> +5.7007817e+02 </wgt>
<wgt id='125'> +7.0302420e+02 </wgt>
<wgt id='126'> +4.8339812e+02 </wgt>
<wgt id='127'> +4.6082628e+02 </wgt>
<wgt id='128'> +5.0417877e+02 </wgt>
<wgt id='129'> +4.8871936e+02 </wgt>
<wgt id='130'> +5.1945776e+02 </wgt>
<wgt id='131'> +4.3600689e+02 </wgt>
<wgt id='132'> +5.3830986e+02 </wgt>
<wgt id='133'> +5.6252901e+02 </wgt>
<wgt id='134'> +5.5235146e+02 </wgt>
<wgt id='135'> +4.7131470e+02 </wgt>
<wgt id='136'> +6.1305642e+02 </wgt>
<wgt id='137'> +5.8300134e+02 </wgt>
<wgt id='138'> +5.4951177e+02 </wgt>
<wgt id='139'> +5.2367413e+02 </wgt>
<wgt id='140'> +4.8789802e+02 </wgt>
<wgt id='141'> +6.3944063e+02 </wgt>
<wgt id='142'> +2.6886975e+02 </wgt>
<wgt id='143'> +5.0891966e+02 </wgt>
<wgt id='144'> +4.3514309e+02 </wgt>
<wgt id='145'> +4.5430055e+02 </wgt>
</rwgt>
</event>
<event>
 4      1 +5.0481800e+02 3.97770500e+02 7.54677100e-03 1.04455400e-01
       21 -1    0    0  503  502 +0.0000000000e+00 +0.0000000000e+00 +1.8169794650e+02 1.8169794650e+02 0.0000000000e+00 0.0000e+00 -1.0000e+00
       21 -1    0    0  501  503 -0.0000000000e+00 -0.0000000000e+00 -9.2752578976e+02 9.2752578976e+02 0.0000000000e+00 0.0000e+00 1.0000e+00
        6  1    1    2  501    0 -2.7829720607e+02 -2.2548395938e+02 -2.3574928441e+02 4.6238412164e+02 1.7300000000e+02 0.0000e+00 -1.0000e+00
       -6  1    1    2    0  502 +2.7829720607e+02 +2.2548395938e+02 -5.1007855884e+02 6.4683961462e+02 1.7300000000e+02 0.0000e+00 -1.0000e+00
<mgrwt>
<rscale>  2 0.39777048E+03</rscale>
<asrwt>0</asrwt>
<pdfrwt beam="1">  1       21 0.27953530E-01 0.39777048E+03</pdfrwt>
<pdfrwt beam="2">  1       21 0.14269628E+00 0.39777048E+03</pdfrwt>
<totfact> 0.36837239E+03</totfact>
</mgrwt>
<rwgt>
<wgt id='1'> +6.7352554e+02 </wgt>
<wgt id='2'> +5.1477198e+02 </wgt>
<wgt id='3'> +5.0481800e+02 </wgt>
<wgt id='4'> +6.7352554e+02 </wgt>
<wgt id='5'> +4.9845354e+02 </wgt>
<wgt id='6'> +5.9912130e+02 </wgt>
<wgt id='7'> +4.5985618e+02 </wgt>
<wgt id='8'> +4.5110728e+02 </wgt>
<wgt id='9'> +5.9912131e+02 </wgt>
<wgt id='10'> +4.4551268e+02 </wgt>
<wgt id='11'> +5.3537706e+02 </wgt>
<wgt id='12'> +4.1268035e+02 </wgt>
<wgt id='13'> +4.0495756e+02 </wgt>
<wgt id='14'> +5.3537707e+02 </wgt>
<wgt id='15'> +4.0001833e+02 </wgt>
<wgt id='16'> +5.6751081e+02 </wgt>
<wgt id='17'> +4.3921121e+02 </wgt>
<wgt id='18'> +4.3109585e+02 </wgt>
<wgt id='19'> +5.6751081e+02 </wgt>
<wgt id='20'> +4.2590312e+02 </wgt>
<wgt id='21'> +3.9235623e+02 </wgt>
<wgt id='22'> +3.8522888e+02 </wgt>
<wgt id='23'> +5.0481800e+02 </wgt>
<wgt id='24'> +3.8066785e+02 </wgt>
<wgt id='25'> +4.5110728e+02 </wgt>
<wgt id='26'> +3.5210510e+02 </wgt>
<wgt id='27'> +3.4581873e+02 </wgt>
<wgt id='28'> +4.5110728e+02 </wgt>
<wgt id='29'> +3.4179526e+02 </wgt>
<wgt id='30'> +4.8463318e+02 </wgt>
<wgt id='31'> +3.7914548e+02 </wgt>
<wgt id='32'> +3.7241838e+02 </wgt>
<wgt id='33'> +4.8463318e+02 </wgt>
<wgt id='34'> +3.6811101e+02 </wgt>
<wgt id='35'> +4.3109584e+02 </wgt>
<wgt id='36'> +3.3869830e+02 </wgt>
<wgt id='37'> +3.3279447e+02 </wgt>
<wgt id='38'> +4.3109585e+02 </wgt>
<wgt id='39'> +3.2901385e+02 </wgt>
<wgt id='40'> +3.8522888e+02 </wgt>
<wgt id='41'> +3.0395184e+02 </wgt>
<wgt id='42'> +2.9874853e+02 </wgt>
<wgt id='43'> +3.8522888e+02 </wgt>
<wgt id='44'> +2.9541600e+02 </wgt>
<wgt id='45'> +5.0481800e+02 </wgt>
<wgt id='46'> +5.2425563e+02 </wgt>
<wgt id='47'> +5.2706896e+02 </wgt>
<wgt id='48'> +5.1117282e+02 </wgt>
<wgt id='49'> +4.8176773e+02 </wgt>
<wgt id='50'> +6.2360254e+02 </wgt>
<wgt id='51'> +4.8446927e+02 </wgt>
<wgt id='52'> +4.9099074e+02 </wgt>
<wgt id='53'> +4.9842016e+02 </wgt>
<wgt id='54'> +5.2439853e+02 </wgt>
<wgt id='55'> +5.0943570e+02 </wgt>
<wgt id='56'> +4.6174043e+02 </wgt>
<wgt id='57'> +5.1885207e+02 </wgt>
<wgt id='58'> +4.6965134e+02 </wgt>
<wgt id='59'> +5.4020549e+02 </wgt>
<wgt id='60'> +5.0625960e+02 </wgt>
<wgt id='61'> +4.3926764e+02 </wgt>
<wgt id='62'> +4.8356412e+02 </wgt>
<wgt id='63'> +5.1762494e+02 </wgt>
<wgt id='64'> +4.9407569e+02 </wgt>
<wgt id='65'> +5.2524089e+02 </wgt>
<wgt id='66'> +5.0435245e+02 </wgt>
<wgt id='67'> +5.0736032e+02 </wgt>
<wgt id='68'> +5.8803641e+02 </wgt>
<wgt id='69'> +5.3324690e+02 </wgt>
<wgt id='70'> +5.1429259e+02 </wgt>
<wgt id='71'> +4.9312692e+02 </wgt>
<wgt id='72'> +4.6198766e+02 </wgt>
<wgt id='73'> +4.6890501e+02 </wgt>
<wgt id='74'> +5.6014378e+02 </wgt>
<wgt id='75'> +5.3167442e+02 </wgt>
<wgt id='76'> +5.0515789e+02 </wgt>
<wgt id='77'> +4.9057345e+02 </wgt>
<wgt id='78'> +4.5566194e+02 </wgt>
<wgt id='79'> +5.1859280e+02 </wgt>
<wgt id='80'> +4.6987929e+02 </wgt>
<wgt id='81'> +5.0281571e+02 </wgt>
<wgt id='82'> +4.8938224e+02 </wgt>
<wgt id='83'> +5.1079634e+02 </wgt>
<wgt id='84'> +5.2841336e+02 </wgt>
<wgt id='85'> +4.8981969e+02 </wgt>
<wgt id='86'> +5.2152671e+02 </wgt>
<wgt id='87'> +5.0608637e+02 </wgt>
<wgt id='88'> +5.0515446e+02 </wgt>
<wgt id='89'> +4.7907826e+02 </wgt>
<wgt id='90'> +4.9770703e+02 </wgt>
<wgt id='91'> +4.8350109e+02 </wgt>
<wgt id='92'> +4.5087409e+02 </wgt>
<wgt id='93'> +5.0883291e+02 </wgt>
<wgt id='94'> +4.7243775e+02 </wgt>
<wgt id='95'> +5.0912990e+02 </wgt>
<wgt id='96'> +5.4549966e+02 </wgt>
<wgt id='97'> +4.7785027e+02 </wgt>
<wgt id='98'> +5.1570699e+02 </wgt>
<wgt id='99'> +4.5067720e+02 </wgt>
<wgt id='100'> +4.2204011e+02 </wgt>
<wgt id='101'> +5.8631273e+02 </wgt>
<wgt id='102'> +5.5333266e+02 </wgt>
<wgt id='103'> +5.2257203e+02 </wgt>
<wgt id='104'> +5.2930499e+02 </wgt>
<wgt id='105'> +5.1423197e+02 </wgt>
<wgt id='106'> +4.6036668e+02 </wgt>
<wgt id='107'> +4.7109185e+02 </wgt>
<wgt id='108'> +4.4613538e+02 </wgt>
<wgt id='109'> +4.7880587e+02 </wgt>
<wgt id='110'> +4.8080111e+02 </wgt>
<wgt id='111'> +4.8785814e+02 </wgt>
<wgt id='112'> +4.9358847e+02 </wgt>
<wgt id='113'> +4.8628804e+02 </wgt>
<wgt id='114'> +4.9730240e+02 </wgt>
<wgt id='115'> +4.6618442e+02 </wgt>
<wgt id='116'> +5.4817626e+02 </wgt>
<wgt id='117'> +4.9432059e+02 </wgt>
<wgt id='118'> +5.3561795e+02 </wgt>
<wgt id='119'> +5.1311406e+02 </wgt>
<wgt id='120'> +4.9780249e+02 </wgt>
<wgt id='121'> +4.9289673e+02 </wgt>
<wgt id='122'> +4.9553186e+02 </wgt>
<wgt id='123'> +5.0195429e+02 </wgt>
<wgt id='124'> +5.7687084e+02 </wgt>
<wgt id='125'> +6.0465858e+02 </wgt>
<wgt id='126'> +5.1407527e+02 </wgt>
<wgt id='127'> +5.0628795e+02 </wgt>
<wgt id='128'> +4.6661493e+02 </wgt>
<wgt id='129'> +5.4779068e+02 </wgt>
<wgt id='130'> +4.9740636e+02 </wgt>
<wgt id='131'> +4.9863377e+02 </wgt>
<wgt id='132'> +5.4463590e+02 </wgt>
<wgt id='133'> +5.4011706e+02 </wgt>
<wgt id='134'> +5.0786155e+02 </wgt>
<wgt id='135'> +4.9841000e+02 </wgt>
<wgt id='136'> +5.5729047e+02 </wgt>
<wgt id='137'> +5.0629902e+02 </wgt>
<wgt id='138'> +5.0505693e+02 </wgt>
<wgt id='139'> +5.2285945e+02 </wgt>
<wgt id='140'> +5.0349600e+02 </wgt>
<wgt id='141'> +5.4162276e+02 </wgt>
<wgt id='142'> +4.1739719e+02 </wgt>
<wgt id='143'> +5.1826388e+02 </wgt>
<wgt id='144'> +4.7202965e+02 </wgt>
<wgt id='145'> +4.8539987e+02 </wgt>
</rwgt>
</event>
<event>
 4      1 +5.0481800e+02 3.34829100e+02 7.54677100e-03 1.06902000e-01
       21 -1    0    0  501  502 +0.0000000000e+00 +0.0000000000e+00 +1.7582129565e+02 1.7582129565e+02 0.0000000000e+00 0.0000e+00 -1.0000e+00
       21 -1    0    0  502  503 -0.0000000000e+00 -0.0000000000e+00 -8.6504985087e+02 8.6504985087e+02 0.0000000000e+00 0.0000e+00 1.0000e+00
        6  1    1    2  501    0 -7.0591607065e+00 +2.8658630820e+02 -6.1145483692e+02 6.9712808105e+02 1.7300000000e+02 0.0000e+00 -1.0000e+00
       -6  1    1    2    0  503 +7.0591607065e+00 -2.8658630820e+02 -7.7773718303e+01 3.4374306547e+02 1.7300000000e+02 0.0000e+00 -1.0000e+00
<mgrwt>
<rscale>  2 0.33482913E+03</rscale>
<asrwt>0</asrwt>
<pdfrwt beam="1">  1       21 0.27049430E-01 0.33482913E+03</pdfrwt>
<pdfrwt beam="2">  1       21 0.13308459E+00 0.33482913E+03</pdfrwt>
<totfact> 0.48520173E+03</totfact>
</mgrwt>
<rwgt>
<wgt id='1'> +6.7300267e+02 </wgt>
<wgt id='2'> +5.1814844e+02 </wgt>
<wgt id='3'> +5.0481800e+02 </wgt>
<wgt id='4'> +6.7300267e+02 </wgt>
<wgt id='5'> +4.7504485e+02 </wgt>
<wgt id='6'> +6.0233195e+02 </wgt>
<wgt id='7'> +4.6466685e+02 </wgt>
<wgt id='8'> +4.5288274e+02 </wgt>
<wgt id='9'> +6.0233195e+02 </wgt>
<wgt id='10'> +4.2655315e+02 </wgt>
<wgt id='11'> +5.4036453e+02 </wgt>
<wgt id='12'> +4.1841933e+02 </wgt>
<wgt id='13'> +4.0796602e+02 </wgt>
<wgt id='14'> +5.4036453e+02 </wgt>
<wgt id='15'> +3.8460017e+02 </wgt>
<wgt id='16'> +5.6404755e+02 </wgt>
<wgt id='17'> +4.4054506e+02 </wgt>
<wgt id='18'> +4.2973610e+02 </wgt>
<wgt id='19'> +5.6404756e+02 </wgt>
<wgt id='20'> +4.0552592e+02 </wgt>
<wgt id='21'> +3.9507344e+02 </wgt>
<wgt id='22'> +3.8552521e+02 </wgt>
<wgt id='23'> +5.0481800e+02 </wgt>
<wgt id='24'> +3.6413059e+02 </wgt>
<wgt id='25'> +4.5288274e+02 </wgt>
<wgt id='26'> +3.5575244e+02 </wgt>
<wgt id='27'> +3.4728898e+02 </wgt>
<wgt id='28'> +4.5288274e+02 </wgt>
<wgt id='29'> +3.2831708e+02 </wgt>
<wgt id='30'> +4.8015641e+02 </wgt>
<wgt id='31'> +3.7915642e+02 </wgt>
<wgt id='32'> +3.7023859e+02 </wgt>
<wgt id='33'> +4.8015641e+02 </wgt>
<wgt id='34'> +3.5022217e+02 </wgt>
<wgt id='35'> +4.2973610e+02 </wgt>
<wgt id='36'> +3.4002113e+02 </wgt>
<wgt id='37'> +3.3214875e+02 </wgt>
<wgt id='38'> +4.2973610e+02 </wgt>
<wgt id='39'> +3.1447214e+02 </wgt>
<wgt id='40'> +3.8552520e+02 </wgt>
<wgt id='41'> +3.0617940e+02 </wgt>
<wgt id='42'> +2.9920638e+02 </wgt>
<wgt id='43'> +3.8552521e+02 </wgt>
<wgt id='44'> +2.8354271e+02 </wgt>
<wgt id='45'> +5.0481800e+02 </wgt>
<wgt id='46'> +5.2339904e+02 </wgt>
<wgt id='47'> +5.2602379e+02 </wgt>
<wgt id='48'> +5.1118446e+02 </wgt>
<wgt id='49'> +4.8513968e+02 </wgt>
<wgt id='50'> +6.2313361e+02 </wgt>
<wgt id='51'> +4.8608233e+02 </wgt>
<wgt id='52'> +4.9461949e+02 </wgt>
<wgt id='53'> +4.9760030e+02 </wgt>
<wgt id='54'> +5.2206608e+02 </wgt>
<wgt id='55'> +5.0056641e+02 </wgt>
<wgt id='56'> +4.5977426e+02 </wgt>
<wgt id='57'> +5.1594974e+02 </wgt>
<wgt id='58'> +4.7431374e+02 </wgt>
<wgt id='59'> +5.3728931e+02 </wgt>
<wgt id='60'> +5.0611827e+02 </wgt>
<wgt id='61'> +4.3651977e+02 </wgt>
<wgt id='62'> +4.8657939e+02 </wgt>
<wgt id='63'> +5.1505625e+02 </wgt>
<wgt id='64'> +4.9371114e+02 </wgt>
<wgt id='65'> +5.3582739e+02 </wgt>
<wgt id='66'> +5.0229051e+02 </wgt>
<wgt id='67'> +5.0737011e+02 </wgt>
<wgt id='68'> +5.8138633e+02 </wgt>
<wgt id='69'> +5.2734571e+02 </wgt>
<wgt id='70'> +5.0931343e+02 </wgt>
<wgt id='71'> +4.9720738e+02 </wgt>
<wgt id='72'> +4.6566109e+02 </wgt>
<wgt id='73'> +4.7275834e+02 </wgt>
<wgt id='74'> +5.5478333e+02 </wgt>
<wgt id='75'> +5.2797905e+02 </wgt>
<wgt id='76'> +5.0320517e+02 </wgt>
<wgt id='77'> +4.9221630e+02 </wgt>
<wgt id='78'> +4.6099464e+02 </wgt>
<wgt id='79'> +5.1389384e+02 </wgt>
<wgt id='80'> +4.7454556e+02 </wgt>
<wgt id='81'> +5.0010422e+02 </wgt>
<wgt id='82'> +4.8984141e+02 </wgt>
<wgt id='83'> +5.1155576e+02 </wgt>
<wgt id='84'> +5.3326168e+02 </wgt>
<wgt id='85'> +4.9605034e+02 </wgt>
<wgt id='86'> +5.1864889e+02 </wgt>
<wgt id='87'> +5.0715722e+02 </wgt>
<wgt id='88'> +5.0596905e+02 </wgt>
<wgt id='89'> +4.8774572e+02 </wgt>
<wgt id='90'> +5.0238783e+02 </wgt>
<wgt id='91'> +4.9159949e+02 </wgt>
<wgt id='92'> +4.5061858e+02 </wgt>
<wgt id='93'> +5.0767628e+02 </wgt>
<wgt id='94'> +4.7577163e+02 </wgt>
<wgt id='95'> +5.0633384e+02 </wgt>
<wgt id='96'> +5.4615505e+02 </wgt>
<wgt id='97'> +4.8244558e+02 </wgt>
<wgt id='98'> +5.1011295e+02 </wgt>
<wgt id='99'> +4.5654273e+02 </wgt>
<wgt id='100'> +4.3138803e+02 </wgt>
<wgt id='101'> +5.8195738e+02 </wgt>
<wgt id='102'> +5.4697575e+02 </wgt>
<wgt id='103'> +5.2912230e+02 </wgt>
<wgt id='104'> +5.2518332e+02 </wgt>
<wgt id='105'> +5.1538627e+02 </wgt>
<wgt id='106'> +4.5811326e+02 </wgt>
<wgt id='107'> +4.7127006e+02 </wgt>
<wgt id='108'> +4.4389220e+02 </wgt>
<wgt id='109'> +4.7688283e+02 </wgt>
<wgt id='110'> +4.8515543e+02 </wgt>
<wgt id='111'> +4.8819098e+02 </wgt>
<wgt id='112'> +4.8908438e+02 </wgt>
<wgt id='113'> +4.8020754e+02 </wgt>
<wgt id='114'> +4.9562018e+02 </wgt>
<wgt id='115'> +4.6798108e+02 </wgt>
<wgt id='116'> +5.4366794e+02 </wgt>
<wgt id='117'> +4.9500086e+02 </wgt>
<wgt id='118'> +5.3600410e+02 </wgt>
<wgt id='119'> +5.0757573e+02 </wgt>
<wgt id='120'> +4.9690066e+02 </wgt>
<wgt id='121'> +4.9329385e+02 </wgt>
<wgt id='122'> +4.9633456e+02 </wgt>
<wgt id='123'> +5.0435350e+02 </wgt>
<wgt id='124'> +5.7507108e+02 </wgt>
<wgt id='125'> +5.9661484e+02 </wgt>
<wgt id='126'> +5.1651356e+02 </wgt>
<wgt id='127'> +5.0987526e+02 </wgt>
<wgt id='128'> +4.6346874e+02 </wgt>
<wgt id='129'> +5.5344425e+02 </wgt>
<wgt id='130'> +4.9818447e+02 </wgt>
<wgt id='131'> +5.0545475e+02 </wgt>
<wgt id='132'> +5.4222171e+02 </wgt>
<wgt id='133'> +5.3626320e+02 </wgt>
<wgt id='134'> +5.0345526e+02 </wgt>
<wgt id='135'> +5.0163034e+02 </wgt>
<wgt id='136'> +5.4944811e+02 </wgt>
<wgt id='137'> +5.0067116e+02 </wgt>
<wgt id='138'> +4.9869843e+02 </wgt>
<wgt id='139'> +5.2281681e+02 </wgt>
<wgt id='140'> +5.0696206e+02 </wgt>
<wgt id='141'> +5.3490515e+02 </wgt>
<wgt id='142'> +4.3032195e+02 </wgt>
<wgt id='143'> +5.1785929e+02 </wgt>
<wgt id='144'> +4.7629338e+02 </wgt>
<wgt id='145'> +4.8893259e+02 </wgt>
</rwgt>
</event>
<event>
 4      1 +5.0481800e+02 2.91746200e+02 7.54677100e-03 1.08944100e-01
       21 -1    0    0  501  502 +0.0000000000e+00 +0.0000000000e+00 +9.7761452092e+02 9.7761452092e+02 0.0000000000e+00 0.0000e+00 -1.0000e+00
       21 -1    0    0  502  503 -0.0000000000e+00 -0.0000000000e+00 -1.0402864332e+02 1.0402864332e+02 0.0000000000e+00 0.0000e+00 1.0000e+00
        6  1    1    2  501    0 -1.9007846234e+02 +1.3804721978e+02 +6.5518613147e+02 7.1720619323e+02 1.7300000000e+02 0.0000e+00 -1.0000e+00
       -6  1    1    2    0  503 +1.9007846234e+02 -1.3804721978e+02 +2.1839974612e+02 3.6443697101e+02 1.7300000000e+02 0.0000e+00 1.0000e+00
<mgrwt>
<rscale>  2 0.29174622E+03</rscale>
<asrwt>0</asrwt>
<pdfrwt beam="1">  1       21 0.15040223E+00 0.29174622E+03</pdfrwt>
<pdfrwt beam="2">  1       21 0.16004407E-01 0.29174622E+03</pdfrwt>
<totfact> 0.97171424E+03</totfact>
</mgrwt>
<rwgt>
<wgt id='1'> +6.7015007e+02 </wgt>
<wgt id='2'> +5.3304753e+02 </wgt>
<wgt id='3'> +5.0481800e+02 </wgt>
<wgt id='4'> +6.7015007e+02 </wgt>
<wgt id='5'> +4.8741729e+02 </wgt>
<wgt id='6'> +6.0604719e+02 </wgt>
<wgt id='7'> +4.8092511e+02 </wgt>
<wgt id='8'> +4.5572604e+02 </wgt>
<wgt id='9'> +6.0604719e+02 </wgt>
<wgt id='10'> +4.4019141e+02 </wgt>
<wgt id='11'> +5.4711101e+02 </wgt>
<wgt id='12'> +4.3528655e+02 </wgt>
<wgt id='13'> +4.1275548e+02 </wgt>
<wgt id='14'> +5.4711101e+02 </wgt>
<wgt id='15'> +3.9886232e+02 </wgt>
<wgt id='16'> +5.5821365e+02 </wgt>
<wgt id='17'> +4.5136707e+02 </wgt>
<wgt id='18'> +4.2861415e+02 </wgt>
<wgt id='19'> +5.5821365e+02 </wgt>
<wgt id='20'> +4.1454212e+02 </wgt>
<wgt id='21'> +4.0723153e+02 </wgt>
<wgt id='22'> +3.8693277e+02 </wgt>
<wgt id='23'> +5.0481800e+02 </wgt>
<wgt id='24'> +3.7437711e+02 </wgt>
<wgt id='25'> +4.5572604e+02 </wgt>
<wgt id='26'> +3.6858630e+02 </wgt>
<wgt id='27'> +3.5044875e+02 </wgt>
<wgt id='28'> +4.5572604e+02 </wgt>
<wgt id='29'> +3.3922726e+02 </wgt>
<wgt id='30'> +4.7394956e+02 </wgt>
<wgt id='31'> +3.8711868e+02 </wgt>
<wgt id='32'> +3.6844583e+02 </wgt>
<wgt id='33'> +4.7394956e+02 </wgt>
<wgt id='34'> +3.5686901e+02 </wgt>
<wgt id='35'> +4.2861415e+02 </wgt>
<wgt id='36'> +3.4926547e+02 </wgt>
<wgt id='37'> +3.3261564e+02 </wgt>
<wgt id='38'> +4.2861415e+02 </wgt>
<wgt id='39'> +3.2229196e+02 </wgt>
<wgt id='40'> +3.8693277e+02 </wgt>
<wgt id='41'> +3.1612107e+02 </wgt>
<wgt id='42'> +3.0125319e+02 </wgt>
<wgt id='43'> +3.8693277e+02 </wgt>
<wgt id='44'> +2.9203232e+02 </wgt>
<wgt id='45'> +5.0481800e+02 </wgt>
<wgt id='46'> +5.2053951e+02 </wgt>
<wgt id='47'> +5.2275192e+02 </wgt>
<wgt id='48'> +5.0761739e+02 </wgt>
<wgt id='49'> +4.7996142e+02 </wgt>
<wgt id='50'> +6.0885991e+02 </wgt>
<wgt id='51'> +4.8305404e+02 </wgt>
<wgt id='52'> +4.8947816e+02 </wgt>
<wgt id='53'> +5.0042987e+02 </wgt>
<wgt id='54'> +5.2600300e+02 </wgt>
<wgt id='55'> +5.1847245e+02 </wgt>
<wgt id='56'> +4.6718156e+02 </wgt>
<wgt id='57'> +5.2282003e+02 </wgt>
<wgt id='58'> +4.7160900e+02 </wgt>
<wgt id='59'> +5.3969829e+02 </wgt>
<wgt id='60'> +5.0474927e+02 </wgt>
<wgt id='61'> +4.4738288e+02 </wgt>
<wgt id='62'> +4.8083596e+02 </wgt>
<wgt id='63'> +5.1917581e+02 </wgt>
<wgt id='64'> +4.9865154e+02 </wgt>
<wgt id='65'> +5.1653311e+02 </wgt>
<wgt id='66'> +5.0373106e+02 </wgt>
<wgt id='67'> +5.0725141e+02 </wgt>
<wgt id='68'> +5.8549874e+02 </wgt>
<wgt id='69'> +5.2826886e+02 </wgt>
<wgt id='70'> +5.1701539e+02 </wgt>
<wgt id='71'> +4.9110467e+02 </wgt>
<wgt id='72'> +4.7046438e+02 </wgt>
<wgt id='73'> +4.6917985e+02 </wgt>
<wgt id='74'> +5.5758630e+02 </wgt>
<wgt id='75'> +5.3105955e+02 </wgt>
<wgt id='76'> +5.0891436e+02 </wgt>
<wgt id='77'> +4.8815378e+02 </wgt>
<wgt id='78'> +4.5606962e+02 </wgt>
<wgt id='79'> +5.1888431e+02 </wgt>
<wgt id='80'> +4.6885732e+02 </wgt>
<wgt id='81'> +5.0605748e+02 </wgt>
<wgt id='82'> +4.8969136e+02 </wgt>
<wgt id='83'> +5.0613439e+02 </wgt>
<wgt id='84'> +5.2142891e+02 </wgt>
<wgt id='85'> +4.8523049e+02 </wgt>
<wgt id='86'> +5.1933144e+02 </wgt>
<wgt id='87'> +5.0446220e+02 </wgt>
<wgt id='88'> +5.0096615e+02 </wgt>
<wgt id='89'> +4.7335180e+02 </wgt>
<wgt id='90'> +4.9504653e+02 </wgt>
<wgt id='91'> +4.7896858e+02 </wgt>
<wgt id='92'> +4.6119547e+02 </wgt>
<wgt id='93'> +5.0684337e+02 </wgt>
<wgt id='94'> +4.7387016e+02 </wgt>
<wgt id='95'> +5.1549443e+02 </wgt>
<wgt id='96'> +5.3716141e+02 </wgt>
<wgt id='97'> +4.7740859e+02 </wgt>
<wgt id='98'> +5.1752845e+02 </wgt>
<wgt id='99'> +4.4930342e+02 </wgt>
<wgt id='100'> +4.2282051e+02 </wgt>
<wgt id='101'> +5.7963820e+02 </wgt>
<wgt id='102'> +5.4911882e+02 </wgt>
<wgt id='103'> +5.1571027e+02 </wgt>
<wgt id='104'> +5.2727940e+02 </wgt>
<wgt id='105'> +5.1771446e+02 </wgt>
<wgt id='106'> +4.7000572e+02 </wgt>
<wgt id='107'> +4.7770767e+02 </wgt>
<wgt id='108'> +4.5452816e+02 </wgt>
<wgt id='109'> +4.8544896e+02 </wgt>
<wgt id='110'> +4.8110215e+02 </wgt>
<wgt id='111'> +4.9090783e+02 </wgt>
<wgt id='112'> +5.0039536e+02 </wgt>
<wgt id='113'> +4.9366323e+02 </wgt>
<wgt id='114'> +5.0640048e+02 </wgt>
<wgt id='115'> +4.6891915e+02 </wgt>
<wgt id='116'> +5.4289944e+02 </wgt>
<wgt id='117'> +4.9509795e+02 </wgt>
<wgt id='118'> +5.2962694e+02 </wgt>
<wgt id='119'> +5.2015511e+02 </wgt>
<wgt id='120'> +5.0136132e+02 </wgt>
<wgt id='121'> +4.9704434e+02 </wgt>
<wgt id='122'> +4.9666549e+02 </wgt>
<wgt id='123'> +4.9797621e+02 </wgt>
<wgt id='124'> +5.7063913e+02 </wgt>
<wgt id='125'> +6.0165337e+02 </wgt>
<wgt id='126'> +5.0882232e+02 </wgt>
<wgt id='127'> +5.0208786e+02 </wgt>
<wgt id='128'> +4.7031180e+02 </wgt>
<wgt id='129'> +5.4280970e+02 </wgt>
<wgt id='130'> +4.9260747e+02 </wgt>
<wgt id='131'> +4.9485316e+02 </wgt>
<wgt id='132'> +5.4505375e+02 </wgt>
<wgt id='133'> +5.3780847e+02 </wgt>
<wgt id='134'> +5.1052614e+02 </wgt>
<wgt id='135'> +4.9664455e+02 </wgt>
<wgt id='136'> +5.6153726e+02 </wgt>
<wgt id='137'> +5.0570488e+02 </wgt>
<wgt id='138'> +4.9996599e+02 </wgt>
<wgt id='139'> +5.2087758e+02 </wgt>
<wgt id='140'> +5.0351445e+02 </wgt>
<wgt id='141'> +5.4265050e+02 </wgt>
<wgt id='142'> +4.1424803e+02 </wgt>
<wgt id='143'> +5.1778847e+02 </wgt>
<wgt id='144'> +4.7371980e+02 </wgt>
<wgt id='145'> +4.8278334e+02 </wgt>
</rwgt>
</event>
<event>
 4      1 +5.0481800e+02 1.75549500e+02 7.54677100e-03 1.17218100e-01
       21 -1    0    0  501  502 +0.0000000000e+00 +0.0000000000e+00 +3.6233653113e+01 3.6233653113e+01 0.0000000000e+00 0.0000e+00 1.0000e+00
       21 -1    0    0  502  503 -0.0000000000e+00 -0.0000000000e+00 -1.4706980587e+03 1.4706980587e+03 0.0000000000e+00 0.0000e+00 1.0000e+00
        6  1    1    2  501    0 +2.4183858859e+01 +1.7428981597e+01 -2.2795130683e+02 2.8771414063e+02 1.7300000000e+02 0.0000e+00 1.0000e+00
       -6  1    1    2    0  503 -2.4183858859e+01 -1.7428981597e+01 -1.2065130988e+03 1.2192175712e+03 1.7300000000e+02 0.0000e+00 1.0000e+00
<mgrwt>
<rscale>  2 0.17554950E+03</rscale>
<asrwt>0</asrwt>
<pdfrwt beam="1">  1       21 0.55744085E-02 0.17554950E+03</pdfrwt>
<pdfrwt beam="2">  1       21 0.22626123E+00 0.17554950E+03</pdfrwt>
<totfact> 0.20895365E+04</totfact>
</mgrwt>
<rwgt>
<wgt id='1'> +6.8552732e+02 </wgt>
<wgt id='2'> +1.0834456e+03 </wgt>
<wgt id='3'> +5.0481799e+02 </wgt>
<wgt id='4'> +6.8552731e+02 </wgt>
<wgt id='5'> +4.4985349e+02 </wgt>
<wgt id='6'> +6.2218136e+02 </wgt>
<wgt id='7'> +9.8982371e+02 </wgt>
<wgt id='8'> +4.5161609e+02 </wgt>
<wgt id='9'> +6.2218135e+02 </wgt>
<wgt id='10'> +4.0262299e+02 </wgt>
<wgt id='11'> +5.5661073e+02 </wgt>
<wgt id='12'> +8.9979904e+02 </wgt>
<wgt id='13'> +4.0509696e+02 </wgt>
<wgt id='14'> +5.5661072e+02 </wgt>
<wgt id='15'> +3.6171029e+02 </wgt>
<wgt id='16'> +5.5621488e+02 </wgt>
<wgt id='17'> +8.4764545e+02 </wgt>
<wgt id='18'> +4.2380314e+02 </wgt>
<wgt id='19'> +5.5621488e+02 </wgt>
<wgt id='20'> +3.8017283e+02 </wgt>
<wgt id='21'> +7.7439933e+02 </wgt>
<wgt id='22'> +3.7913925e+02 </wgt>
<wgt id='23'> +5.0481799e+02 </wgt>
<wgt id='24'> +3.4025815e+02 </wgt>
<wgt id='25'> +4.5161609e+02 </wgt>
<wgt id='26'> +7.0396755e+02 </wgt>
<wgt id='27'> +3.4008567e+02 </wgt>
<wgt id='28'> +4.5161609e+02 </wgt>
<wgt id='29'> +3.0568268e+02 </wgt>
<wgt id='30'> +4.6695169e+02 </wgt>
<wgt id='31'> +6.8121537e+02 </wgt>
<wgt id='32'> +3.6109088e+02 </wgt>
<wgt id='33'> +4.6695168e+02 </wgt>
<wgt id='34'> +3.2550997e+02 </wgt>
<wgt id='35'> +4.2380314e+02 </wgt>
<wgt id='36'> +6.2235068e+02 </wgt>
<wgt id='37'> +3.2303613e+02 </wgt>
<wgt id='38'> +4.2380314e+02 </wgt>
<wgt id='39'> +2.9133440e+02 </wgt>
<wgt id='40'> +3.7913926e+02 </wgt>
<wgt id='41'> +5.6574776e+02 </wgt>
<wgt id='42'> +2.8976150e+02 </wgt>
<wgt id='43'> +3.7913925e+02 </wgt>
<wgt id='44'> +2.6173033e+02 </wgt>
<wgt id='45'> +5.0481800e+02 </wgt>
<wgt id='46'> +5.1650170e+02 </wgt>
<wgt id='47'> +5.3336290e+02 </wgt>
<wgt id='48'> +5.0293561e+02 </wgt>
<wgt id='49'> +4.5710136e+02 </wgt>
<wgt id='50'> +5.8771133e+02 </wgt>
<wgt id='51'> +4.7148072e+02 </wgt>
<wgt id='52'> +4.5565746e+02 </wgt>
<wgt id='53'> +5.1664099e+02 </wgt>
<wgt id='54'> +5.4000537e+02 </wgt>
<wgt id='55'> +5.8972242e+02 </wgt>
<wgt id='56'> +4.9022761e+02 </wgt>
<wgt id='57'> +5.4139092e+02 </wgt>
<wgt id='58'> +4.4819277e+02 </wgt>
<wgt id='59'> +5.4939093e+02 </wgt>
<wgt id='60'> +4.9960352e+02 </wgt>
<wgt id='61'> +4.2394786e+02 </wgt>
<wgt id='62'> +4.5436270e+02 </wgt>
<wgt id='63'> +5.3827480e+02 </wgt>
<wgt id='64'> +5.0796299e+02 </wgt>
<wgt id='65'> +4.3622606e+02 </wgt>
<wgt id='66'> +5.1638654e+02 </wgt>
<wgt id='67'> +5.0872337e+02 </wgt>
<wgt id='68'> +6.3970804e+02 </wgt>
<wgt id='69'> +5.6213926e+02 </wgt>
<wgt id='70'> +5.6934864e+02 </wgt>
<wgt id='71'> +4.5632889e+02 </wgt>
<wgt id='72'> +4.5063702e+02 </wgt>
<wgt id='73'> +4.5110270e+02 </wgt>
<wgt id='74'> +5.9951261e+02 </wgt>
<wgt id='75'> +5.6981306e+02 </wgt>
<wgt id='76'> +5.2173262e+02 </wgt>
<wgt id='77'> +4.6617115e+02 </wgt>
<wgt id='78'> +4.2413931e+02 </wgt>
<wgt id='79'> +5.5481325e+02 </wgt>
<wgt id='80'> +4.3271410e+02 </wgt>
<wgt id='81'> +5.3549108e+02 </wgt>
<wgt id='82'> +5.0127830e+02 </wgt>
<wgt id='83'> +4.9706957e+02 </wgt>
<wgt id='84'> +4.7937735e+02 </wgt>
<wgt id='85'> +4.4193047e+02 </wgt>
<wgt id='86'> +5.4028037e+02 </wgt>
<wgt id='87'> +4.9201017e+02 </wgt>
<wgt id='88'> +4.9517770e+02 </wgt>
<wgt id='89'> +3.9922225e+02 </wgt>
<wgt id='90'> +4.5218911e+02 </wgt>
<wgt id='91'> +4.1938780e+02 </wgt>
<wgt id='92'> +4.7712059e+02 </wgt>
<wgt id='93'> +5.1414155e+02 </wgt>
<wgt id='94'> +4.5774859e+02 </wgt>
<wgt id='95'> +5.3261337e+02 </wgt>
<wgt id='96'> +5.2756473e+02 </wgt>
<wgt id='97'> +4.4597804e+02 </wgt>
<wgt id='98'> +5.6274350e+02 </wgt>
<wgt id='99'> +4.0855586e+02 </wgt>
<wgt id='100'> +3.6476758e+02 </wgt>
<wgt id='101'> +5.9337373e+02 </wgt>
<wgt id='102'> +5.7637805e+02 </wgt>
<wgt id='103'> +4.6339062e+02 </wgt>
<wgt id='104'> +5.5026151e+02 </wgt>
<wgt id='105'> +5.1591215e+02 </wgt>
<wgt id='106'> +5.0142792e+02 </wgt>
<wgt id='107'> +4.9874034e+02 </wgt>
<wgt id='108'> +4.7779634e+02 </wgt>
<wgt id='109'> +5.0341639e+02 </wgt>
<wgt id='110'> +4.5009346e+02 </wgt>
<wgt id='111'> +4.8669288e+02 </wgt>
<wgt id='112'> +5.3412793e+02 </wgt>
<wgt id='113'> +5.5626813e+02 </wgt>
<wgt id='114'> +5.2795714e+02 </wgt>
<wgt id='115'> +4.6448998e+02 </wgt>
<wgt id='116'> +5.6153854e+02 </wgt>
<wgt id='117'> +4.9790525e+02 </wgt>
<wgt id='118'> +5.1293425e+02 </wgt>
<wgt id='119'> +5.6805362e+02 </wgt>
<wgt id='120'> +5.0480199e+02 </wgt>
<wgt id='121'> +4.8860175e+02 </wgt>
<wgt id='122'> +4.8979574e+02 </wgt>
<wgt id='123'> +4.7055393e+02 </wgt>
<wgt id='124'> +5.6777921e+02 </wgt>
<wgt id='125'> +6.5845624e+02 </wgt>
<wgt id='126'> +4.8745972e+02 </wgt>
<wgt id='127'> +4.7159638e+02 </wgt>
<wgt id='128'> +4.9617588e+02 </wgt>
<wgt id='129'> +5.0054184e+02 </wgt>
<wgt id='130'> +5.1209629e+02 </wgt>
<wgt id='131'> +4.4927604e+02 </wgt>
<wgt id='132'> +5.5036740e+02 </wgt>
<wgt id='133'> +5.5721161e+02 </wgt>
<wgt id='134'> +5.4167484e+02 </wgt>
<wgt id='135'> +4.7598426e+02 </wgt>
<wgt id='136'> +6.0825777e+02 </wgt>
<wgt id='137'> +5.4974212e+02 </wgt>
<wgt id='138'> +5.2728687e+02 </wgt>
<wgt id='139'> +5.2104523e+02 </wgt>
<wgt id='140'> +4.8893029e+02 </wgt>
<wgt id='141'> +5.9772988e+02 </wgt>
<wgt id='142'> +3.1710741e+02 </wgt>
<wgt id='143'> +5.1480713e+02 </wgt>
<wgt id='144'> +4.4935491e+02 </wgt>
<wgt id='145'> +4.5662938e+02 </wgt>
</rwgt>
</event>
<event>
 4      1 +5.0481800e+02 2.03377000e+02 7.54677100e-03 1.14692100e-01
       21 -1    0    0  503  502 +0.0000000000e+00 +0.0000000000e+00 +3.5343042878e+01 3.5343042878e+01 0.0000000000e+00 0.0000e+00 1.0000e+00
       21 -1    0    0  501  503 -0.0000000000e+00 -0.0000000000e+00 -2.0154238377e+03 2.0154238377e+03 0.0000000000e+00 0.0000e+00 -1.0000e+00
        6  1    1    2  501    0 +3.3986369062e+01 -1.0138121694e+02 -1.6540301543e+03 1.6664867164e+03 1.7300000000e+02 0.0000e+00 -1.0000e+00
       -6  1    1    2    0  502 -3.3986369062e+01 +1.0138121694e+02 -3.2605064046e+02 3.8428016417e+02 1.7300000000e+02 0.0000e+00 1.0000e+00
<mgrwt>
<rscale>  2 0.20337705E+03</rscale>
<asrwt>0</asrwt>
<pdfrwt beam="1">  1       21 0.54373914E-02 0.20337705E+03</pdfrwt>
<pdfrwt beam="2">  1       21 0.31006519E+00 0.20337705E+03</pdfrwt>
<totfact> 0.68844905E+03</totfact>
</mgrwt>
<rwgt>
<wgt id='1'> +7.1532058e+02 </wgt>
<wgt id='2'> +6.7514966e+02 </wgt>
<wgt id='3'> +5.0481800e+02 </wgt>
<wgt id='4'> +7.1532058e+02 </wgt>
<wgt id='5'> +4.4351088e+02 </wgt>
<wgt id='6'> +6.1772739e+02 </wgt>
<wgt id='7'> +5.8202878e+02 </wgt>
<wgt id='8'> +4.3349919e+02 </wgt>
<wgt id='9'> +6.1772738e+02 </wgt>
<wgt id='10'> +3.8224117e+02 </wgt>
<wgt id='11'> +5.3045715e+02 </wgt>
<wgt id='12'> +5.0058447e+02 </wgt>
<wgt id='13'> +3.7561232e+02 </wgt>
<wgt id='14'> +5.3045715e+02 </wgt>
<wgt id='15'> +3.3231702e+02 </wgt>
<wgt id='16'> +5.8457292e+02 </wgt>
<wgt id='17'> +5.5517626e+02 </wgt>
<wgt id='18'> +4.2557525e+02 </wgt>
<wgt id='19'> +5.8457292e+02 </wgt>
<wgt id='20'> +3.7590462e+02 </wgt>
<wgt id='21'> +4.7860287e+02 </wgt>
<wgt id='22'> +3.6545156e+02 </wgt>
<wgt id='23'> +5.0481800e+02 </wgt>
<wgt id='24'> +3.2397452e+02 </wgt>
<wgt id='25'> +4.3349919e+02 </wgt>
<wgt id='26'> +4.1163112e+02 </wgt>
<wgt id='27'> +3.1665136e+02 </wgt>
<wgt id='28'> +4.3349919e+02 </wgt>
<wgt id='29'> +2.8166052e+02 </wgt>
<wgt id='30'> +4.9281081e+02 </wgt>
<wgt id='31'> +4.6903724e+02 </wgt>
<wgt id='32'> +3.6357192e+02 </wgt>
<wgt id='33'> +4.9281081e+02 </wgt>
<wgt id='34'> +3.2265645e+02 </wgt>
<wgt id='35'> +4.2557525e+02 </wgt>
<wgt id='36'> +4.0434468e+02 </wgt>
<wgt id='37'> +3.1220783e+02 </wgt>
<wgt id='38'> +4.2557525e+02 </wgt>
<wgt id='39'> +2.7808243e+02 </wgt>
<wgt id='40'> +3.6545156e+02 </wgt>
<wgt id='41'> +3.4776401e+02 </wgt>
<wgt id='42'> +2.7051748e+02 </wgt>
<wgt id='43'> +3.6545156e+02 </wgt>
<wgt id='44'> +2.4176235e+02 </wgt>
<wgt id='45'> +5.0481800e+02 </wgt>
<wgt id='46'> +5.1014218e+02 </wgt>
<wgt id='47'> +5.9794202e+02 </wgt>
<wgt id='48'> +5.0615347e+02 </wgt>
<wgt id='49'> +4.3881615e+02 </wgt>
<wgt id='50'> +6.0601971e+02 </wgt>
<wgt id='51'> +4.7905424e+02 </wgt>
<wgt id='52'> +4.0712408e+02 </wgt>
<wgt id='53'> +5.6290029e+02 </wgt>
<wgt id='54'> +5.3767444e+02 </wgt>
<wgt id='55'> +6.3654272e+02 </wgt>
<wgt id='56'> +4.9238801e+02 </wgt>
<wgt id='57'> +5.5344687e+02 </wgt>
<wgt id='58'> +4.1898947e+02 </wgt>
<wgt id='59'> +5.4754763e+02 </wgt>
<wgt id='60'> +4.8256126e+02 </wgt>
<wgt id='61'> +3.8267899e+02 </wgt>
<wgt id='62'> +4.2882970e+02 </wgt>
<wgt id='63'> +5.3940201e+02 </wgt>
<wgt id='64'> +5.0807056e+02 </wgt>
<wgt id='65'> +3.8123622e+02 </wgt>
<wgt id='66'> +5.2395796e+02 </wgt>
<wgt id='67'> +4.9402175e+02 </wgt>
<wgt id='68'> +7.5464522e+02 </wgt>
<wgt id='69'> +6.0897480e+02 </wgt>
<wgt id='70'> +6.7272868e+02 </wgt>
<wgt id='71'> +4.2637032e+02 </wgt>
<wgt id='72'> +4.0727400e+02 </wgt>
<wgt id='73'> +4.3231242e+02 </wgt>
<wgt id='74'> +6.7780060e+02 </wgt>
<wgt id='75'> +6.4590947e+02 </wgt>
<wgt id='76'> +5.1342526e+02 </wgt>
<wgt id='77'> +4.2989958e+02 </wgt>
<wgt id='78'> +4.0334442e+02 </wgt>
<wgt id='79'> +5.8624159e+02 </wgt>
<wgt id='80'> +3.8056832e+02 </wgt>
<wgt id='81'> +5.6378393e+02 </wgt>
<wgt id='82'> +4.9728984e+02 </wgt>
<wgt id='83'> +5.0469661e+02 </wgt>
<wgt id='84'> +4.3488457e+02 </wgt>
<wgt id='85'> +4.1327317e+02 </wgt>
<wgt id='86'> +5.6611667e+02 </wgt>
<wgt id='87'> +4.6993398e+02 </wgt>
<wgt id='88'> +5.3963259e+02 </wgt>
<wgt id='89'> +3.0988023e+02 </wgt>
<wgt id='90'> +4.0225037e+02 </wgt>
<wgt id='91'> +3.6874230e+02 </wgt>
<wgt id='92'> +4.7522661e+02 </wgt>
<wgt id='93'> +5.3509955e+02 </wgt>
<wgt id='94'> +4.3301627e+02 </wgt>
<wgt id='95'> +5.2322888e+02 </wgt>
<wgt id='96'> +5.0508920e+02 </wgt>
<wgt id='97'> +4.1770844e+02 </wgt>
<wgt id='98'> +6.2964146e+02 </wgt>
<wgt id='99'> +3.7173507e+02 </wgt>
<wgt id='100'> +3.1397379e+02 </wgt>
<wgt id='101'> +6.1797726e+02 </wgt>
<wgt id='102'> +6.0467169e+02 </wgt>
<wgt id='103'> +4.1953690e+02 </wgt>
<wgt id='104'> +5.7496090e+02 </wgt>
<wgt id='105'> +5.1656987e+02 </wgt>
<wgt id='106'> +5.2165817e+02 </wgt>
<wgt id='107'> +5.3020598e+02 </wgt>
<wgt id='108'> +4.6537702e+02 </wgt>
<wgt id='109'> +5.0948781e+02 </wgt>
<wgt id='110'> +3.9502105e+02 </wgt>
<wgt id='111'> +4.7100437e+02 </wgt>
<wgt id='112'> +5.2476293e+02 </wgt>
<wgt id='113'> +6.3092846e+02 </wgt>
<wgt id='114'> +4.7339337e+02 </wgt>
<wgt id='115'> +4.8526661e+02 </wgt>
<wgt id='116'> +5.8775941e+02 </wgt>
<wgt id='117'> +5.2190821e+02 </wgt>
<wgt id='118'> +4.9782939e+02 </wgt>
<wgt id='119'> +5.5361240e+02 </wgt>
<wgt id='120'> +4.9192313e+02 </wgt>
<wgt id='121'> +4.5512419e+02 </wgt>
<wgt id='122'> +4.7141181e+02 </wgt>
<wgt id='123'> +4.4144482e+02 </wgt>
<wgt id='124'> +5.6590014e+02 </wgt>
<wgt id='125'> +7.4830792e+02 </wgt>
<wgt id='126'> +4.7383279e+02 </wgt>
<wgt id='127'> +4.4874841e+02 </wgt>
<wgt id='128'> +5.0779636e+02 </wgt>
<wgt id='129'> +4.6923945e+02 </wgt>
<wgt id='130'> +4.8749207e+02 </wgt>
<wgt id='131'> +4.2096403e+02 </wgt>
<wgt id='132'> +5.3431011e+02 </wgt>
<wgt id='133'> +5.6653388e+02 </wgt>
<wgt id='134'> +5.7602679e+02 </wgt>
<wgt id='135'> +4.6783090e+02 </wgt>
<wgt id='136'> +6.3104095e+02 </wgt>
<wgt id='137'> +6.1384285e+02 </wgt>
<wgt id='138'> +5.7155604e+02 </wgt>
<wgt id='139'> +5.2993957e+02 </wgt>
<wgt id='140'> +4.8137387e+02 </wgt>
<wgt id='141'> +6.8415459e+02 </wgt>
<wgt id='142'> +2.1821446e+02 </wgt>
<wgt id='143'> +5.1075301e+02 </wgt>
<wgt id='144'> +4.2571973e+02 </wgt>
<wgt id='145'> +4.5061446e+02 </wgt>
</rwgt>
</event>
<event>
 4      1 +5.0481800e+02 1.87042500e+02 7.54677100e-03 1.16115600e-01
       21 -1    0    0  503  502 +0.0000000000e+00 +0.0000000000e+00 +3.2478142438e+02 3.2478142438e+02 0.0000000000e+00 0.0000e+00 1.0000e+00
       21 -1    0    0  501  503 -0.0000000000e+00 -0.0000000000e+00 -1.2973974740e+02 1.2973974740e+02 0.0000000000e+00 0.0000e+00 -1.0000e+00
        6  1    1    2  501    0 -4.5471954105e+01 -5.4664546521e+01 +3.8918622835e+00 1.8708302395e+02 1.7300000000e+02 0.0000e+00 -1.0000e+00
       -6  1    1    2    0  502 +4.5471954105e+01 +5.4664546521e+01 +1.9114981470e+02 2.6743814783e+02 1.7300000000e+02 0.0000e+00 1.0000e+00
<mgrwt>
<rscale>  2 0.18704254E+03</rscale>
<asrwt>0</asrwt>
<pdfrwt beam="1">  1       21 0.49966373E-01 0.18704254E+03</pdfrwt>
<pdfrwt beam="2">  1       21 0.19959961E-01 0.18704254E+03</pdfrwt>
<totfact> 0.88605616E+04</totfact>
</mgrwt>
<rwgt>
<wgt id='1'> +6.4599929e+02 </wgt>
<wgt id='2'> +5.5854268e+02 </wgt>
<wgt id='3'> +5.0481800e+02 </wgt>
<wgt id='4'> +6.4599930e+02 </wgt>
<wgt id='5'> +4.8893617e+02 </wgt>
<wgt id='6'> +6.2033292e+02 </wgt>
<wgt id='7'> +5.2961767e+02 </wgt>
<wgt id='8'> +4.7571081e+02 </wgt>
<wgt id='9'> +6.2033292e+02 </wgt>
<wgt id='10'> +4.6047346e+02 </wgt>
<wgt id='11'> +5.8456528e+02 </wgt>
<wgt id='12'> +4.9862545e+02 </wgt>
<wgt id='13'> +4.4775908e+02 </wgt>
<wgt id='14'> +5.8456528e+02 </wgt>
<wgt id='15'> +4.3339692e+02 </wgt>
<wgt id='16'> +5.2570493e+02 </wgt>
<wgt id='17'> +4.6427282e+02 </wgt>
<wgt id='18'> +4.2464805e+02 </wgt>
<wgt id='19'> +5.2570493e+02 </wgt>
<wgt id='20'> +4.1226818e+02 </wgt>
<wgt id='21'> +4.4022972e+02 </wgt>
<wgt id='22'> +4.0016336e+02 </wgt>
<wgt id='23'> +5.0481800e+02 </wgt>
<wgt id='24'> +3.8826859e+02 </wgt>
<wgt id='25'> +4.7571081e+02 </wgt>
<wgt id='26'> +4.1446831e+02 </wgt>
<wgt id='27'> +3.7665064e+02 </wgt>
<wgt id='28'> +4.7571081e+02 </wgt>
<wgt id='29'> +3.6543781e+02 </wgt>
<wgt id='30'> +4.4221793e+02 </wgt>
<wgt id='31'> +3.9387493e+02 </wgt>
<wgt id='32'> +3.6223064e+02 </wgt>
<wgt id='33'> +4.4221793e+02 </wgt>
<wgt id='34'> +3.5226248e+02 </wgt>
<wgt id='35'> +4.2464805e+02 </wgt>
<wgt id='36'> +3.7347750e+02 </wgt>
<wgt id='37'> +3.4134486e+02 </wgt>
<wgt id='38'> +4.2464805e+02 </wgt>
<wgt id='39'> +3.3175603e+02 </wgt>
<wgt id='40'> +4.0016336e+02 </wgt>
<wgt id='41'> +3.5162231e+02 </wgt>
<wgt id='42'> +3.2128818e+02 </wgt>
<wgt id='43'> +4.0016336e+02 </wgt>
<wgt id='44'> +3.1224827e+02 </wgt>
<wgt id='45'> +5.0481800e+02 </wgt>
<wgt id='46'> +5.0391858e+02 </wgt>
<wgt id='47'> +5.2137385e+02 </wgt>
<wgt id='48'> +5.0538684e+02 </wgt>
<wgt id='49'> +5.0372538e+02 </wgt>
<wgt id='50'> +5.8422650e+02 </wgt>
<wgt id='51'> +4.9512979e+02 </wgt>
<wgt id='52'> +5.0204072e+02 </wgt>
<wgt id='53'> +5.1098987e+02 </wgt>
<wgt id='54'> +5.0770917e+02 </wgt>
<wgt id='55'> +4.5338707e+02 </wgt>
<wgt id='56'> +4.7112742e+02 </wgt>
<wgt id='57'> +4.9234492e+02 </wgt>
<wgt id='58'> +5.0928589e+02 </wgt>
<wgt id='59'> +4.9745237e+02 </wgt>
<wgt id='60'> +4.8441799e+02 </wgt>
<wgt id='61'> +4.9258475e+02 </wgt>
<wgt id='62'> +4.9793205e+02 </wgt>
<wgt id='63'> +5.0520788e+02 </wgt>
<wgt id='64'> +5.0107343e+02 </wgt>
<wgt id='65'> +5.9256396e+02 </wgt>
<wgt id='66'> +4.9268806e+02 </wgt>
<wgt id='67'> +5.0928410e+02 </wgt>
<wgt id='68'> +5.3927099e+02 </wgt>
<wgt id='69'> +4.9073104e+02 </wgt>
<wgt id='70'> +4.9684561e+02 </wgt>
<wgt id='71'> +5.1441888e+02 </wgt>
<wgt id='72'> +4.9389409e+02 </wgt>
<wgt id='73'> +4.9882866e+02 </wgt>
<wgt id='74'> +5.1855262e+02 </wgt>
<wgt id='75'> +5.1521946e+02 </wgt>
<wgt id='76'> +4.9112085e+02 </wgt>
<wgt id='77'> +4.8620032e+02 </wgt>
<wgt id='78'> +5.0577984e+02 </wgt>
<wgt id='79'> +4.8417661e+02 </wgt>
<wgt id='80'> +5.0087397e+02 </wgt>
<wgt id='81'> +4.9620382e+02 </wgt>
<wgt id='82'> +5.1821738e+02 </wgt>
<wgt id='83'> +5.1391386e+02 </wgt>
<wgt id='84'> +5.5231799e+02 </wgt>
<wgt id='85'> +5.3015293e+02 </wgt>
<wgt id='86'> +5.0068577e+02 </wgt>
<wgt id='87'> +5.0450754e+02 </wgt>
<wgt id='88'> +5.1243906e+02 </wgt>
<wgt id='89'> +5.1606037e+02 </wgt>
<wgt id='90'> +5.1047256e+02 </wgt>
<wgt id='91'> +5.3649684e+02 </wgt>
<wgt id='92'> +4.6794243e+02 </wgt>
<wgt id='93'> +4.9564755e+02 </wgt>
<wgt id='94'> +5.0301200e+02 </wgt>
<wgt id='95'> +4.8582970e+02 </wgt>
<wgt id='96'> +5.4254916e+02 </wgt>
<wgt id='97'> +5.1297506e+02 </wgt>
<wgt id='98'> +4.8192486e+02 </wgt>
<wgt id='99'> +4.9070762e+02 </wgt>
<wgt id='100'> +5.0264080e+02 </wgt>
<wgt id='101'> +5.2807048e+02 </wgt>
<wgt id='102'> +4.8892782e+02 </wgt>
<wgt id='103'> +5.4646504e+02 </wgt>
<wgt id='104'> +5.0304751e+02 </wgt>
<wgt id='105'> +5.2565262e+02 </wgt>
<wgt id='106'> +4.6722395e+02 </wgt>
<wgt id='107'> +5.0050772e+02 </wgt>
<wgt id='108'> +4.5494361e+02 </wgt>
<wgt id='109'> +4.7611956e+02 </wgt>
<wgt id='110'> +5.0632477e+02 </wgt>
<wgt id='111'> +4.9265577e+02 </wgt>
<wgt id='112'> +4.8286185e+02 </wgt>
<wgt id='113'> +4.6520604e+02 </wgt>
<wgt id='114'> +5.0539352e+02 </wgt>
<wgt id='115'> +5.0642055e+02 </wgt>
<wgt id='116'> +5.0262266e+02 </wgt>
<wgt id='117'> +5.1156681e+02 </wgt>
<wgt id='118'> +5.1580432e+02 </wgt>
<wgt id='119'> +4.8647365e+02 </wgt>
<wgt id='120'> +5.0298309e+02 </wgt>
<wgt id='121'> +4.9193860e+02 </wgt>
<wgt id='122'> +4.9875044e+02 </wgt>
<wgt id='123'> +5.1030353e+02 </wgt>
<wgt id='124'> +5.3676746e+02 </wgt>
<wgt id='125'> +5.3825618e+02 </wgt>
<wgt id='126'> +5.2273795e+02 </wgt>
<wgt id='127'> +5.1878728e+02 </wgt>
<wgt id='128'> +4.6959409e+02 </wgt>
<wgt id='129'> +5.7001911e+02 </wgt>
<wgt id='130'> +5.0747216e+02 </wgt>
<wgt id='131'> +5.3996646e+02 </wgt>
<wgt id='132'> +4.9969053e+02 </wgt>
<wgt id='133'> +5.0037949e+02 </wgt>
<wgt id='134'> +4.7565202e+02 </wgt>
<wgt id='135'> +5.1754108e+02 </wgt>
<wgt id='136'> +4.8475105e+02 </wgt>
<wgt id='137'> +4.7510133e+02 </wgt>
<wgt id='138'> +4.5767267e+02 </wgt>
<wgt id='139'> +5.1387698e+02 </wgt>
<wgt id='140'> +5.3649754e+02 </wgt>
<wgt id='141'> +5.0360217e+02 </wgt>
<wgt id='142'> +5.0908077e+02 </wgt>
<wgt id='143'> +5.0057957e+02 </wgt>
<wgt id='144'> +5.0556398e+02 </wgt>
<wgt id='145'> +5.0592968e+02 </wgt>
</rwgt>
</event>
<event>
 4      1 +5.0481800e+02 2.18849000e+02 7.54677100e-03 1.13474400e-01
       21 -1    0    0  501  502 +0.0000000000e+00 +0.0000000000e+00 +5.9457456638e+02 5.9457456638e+02 0.0000000000e+00 0.0000e+00 -1.0000e+00
       21 -1    0    0  502  503 -0.0000000000e+00 -0.0000000000e+00 -8.2118986207e+01 8.2118986207e+01 0.0000000000e+00 0.0000e+00 1.0000e+00
        6  1    1    2  501    0 +4.2745979541e+01 +1.2703804145e+02 +3.0294821338e+02 3.7372784581e+02 1.7300000000e+02 0.0000e+00 1.0000e+00
       -6  1    1    2    0  503 -4.2745979541e+01 -1.2703804145e+02 +2.0950736679e+02 3.0296570678e+02 1.7300000000e+02 0.0000e+00 1.0000e+00
<mgrwt>
<rscale>  2 0.21884900E+03</rscale>
<asrwt>0</asrwt>
<pdfrwt beam="1">  1       21 0.91473007E-01 0.21884900E+03</pdfrwt>
<pdfrwt beam="2">  1       21 0.12633691E-01 0.21884900E+03</pdfrwt>
<totfact> 0.53456824E+04</totfact>
</mgrwt>
<rwgt>
<wgt id='1'> +6.5111385e+02 </wgt>
<wgt id='2'> +5.6884400e+02 </wgt>
<wgt id='3'> +5.0481800e+02 </wgt>
<wgt id='4'> +6.5111385e+02 </wgt>
<wgt id='5'> +5.0309188e+02 </wgt>
<wgt id='6'> +6.1518303e+02 </wgt>
<wgt id='7'> +5.3177517e+02 </wgt>
<wgt id='8'> +4.7048535e+02 </wgt>
<wgt id='9'> +6.1518303e+02 </wgt>
<wgt id='10'> +4.6888303e+02 </wgt>
<wgt id='11'> +5.7334445e+02 </wgt>
<wgt id='12'> +4.9561762e+02 </wgt>
<wgt id='13'> +4.3856759e+02 </wgt>
<wgt id='14'> +5.7334446e+02 </wgt>
<wgt id='15'> +4.3707726e+02 </wgt>
<wgt id='16'> +5.3430276e+02 </wgt>
<wgt id='17'> +4.7553786e+02 </wgt>
<wgt id='18'> +4.2619003e+02 </wgt>
<wgt id='19'> +5.3430277e+02 </wgt>
<wgt id='20'> +4.2480888e+02 </wgt>
<wgt id='21'> +4.4454935e+02 </wgt>
<wgt id='22'> +3.9720486e+02 </wgt>
<wgt id='23'> +5.0481800e+02 </wgt>
<wgt id='24'> +3.9592306e+02 </wgt>
<wgt id='25'> +4.7048535e+02 </wgt>
<wgt id='26'> +4.1432263e+02 </wgt>
<wgt id='27'> +3.7025846e+02 </wgt>
<wgt id='28'> +4.7048535e+02 </wgt>
<wgt id='29'> +3.6906638e+02 </wgt>
<wgt id='30'> +4.5108239e+02 </wgt>
<wgt id='31'> +4.0433205e+02 </wgt>
<wgt id='32'> +3.6457146e+02 </wgt>
<wgt id='33'> +4.5108239e+02 </wgt>
<wgt id='34'> +3.6345113e+02 </wgt>
<wgt id='35'> +4.2619003e+02 </wgt>
<wgt id='36'> +3.7798368e+02 </wgt>
<wgt id='37'> +3.3977697e+02 </wgt>
<wgt id='38'> +4.2619003e+02 </wgt>
<wgt id='39'> +3.3873747e+02 </wgt>
<wgt id='40'> +3.9720486e+02 </wgt>
<wgt id='41'> +3.5228303e+02 </wgt>
<wgt id='42'> +3.1672647e+02 </wgt>
<wgt id='43'> +3.9720486e+02 </wgt>
<wgt id='44'> +3.1575987e+02 </wgt>
<wgt id='45'> +5.0481800e+02 </wgt>
<wgt id='46'> +5.1315118e+02 </wgt>
<wgt id='47'> +5.2008401e+02 </wgt>
<wgt id='48'> +5.0766140e+02 </wgt>
<wgt id='49'> +4.9757521e+02 </wgt>
<wgt id='50'> +5.9459917e+02 </wgt>
<wgt id='51'> +4.9279481e+02 </wgt>
<wgt id='52'> +5.0313698e+02 </wgt>
<wgt id='53'> +5.0098865e+02 </wgt>
<wgt id='54'> +5.1215697e+02 </wgt>
<wgt id='55'> +4.7579612e+02 </wgt>
<wgt id='56'> +4.6453412e+02 </wgt>
<wgt id='57'> +5.0469641e+02 </wgt>
<wgt id='58'> +4.9690175e+02 </wgt>
<wgt id='59'> +5.1870694e+02 </wgt>
<wgt id='60'> +5.0044141e+02 </wgt>
<wgt id='61'> +4.5313199e+02 </wgt>
<wgt id='62'> +4.9526770e+02 </wgt>
<wgt id='63'> +5.0715733e+02 </wgt>
<wgt id='64'> +4.9665222e+02 </wgt>
<wgt id='65'> +5.6285756e+02 </wgt>
<wgt id='66'> +4.9603918e+02 </wgt>
<wgt id='67'> +5.0801911e+02 </wgt>
<wgt id='68'> +5.5310480e+02 </wgt>
<wgt id='69'> +5.0204921e+02 </wgt>
<wgt id='70'> +4.9932242e+02 </wgt>
<wgt id='71'> +5.0974580e+02 </wgt>
<wgt id='72'> +4.8751937e+02 </wgt>
<wgt id='73'> +4.9052362e+02 </wgt>
<wgt id='74'> +5.3099992e+02 </wgt>
<wgt id='75'> +5.1642244e+02 </wgt>
<wgt id='76'> +4.9785374e+02 </wgt>
<wgt id='77'> +4.9327394e+02 </wgt>
<wgt id='78'> +4.8655983e+02 </wgt>
<wgt id='79'> +4.9730916e+02 </wgt>
<wgt id='80'> +4.9224536e+02 </wgt>
<wgt id='81'> +4.9651436e+02 </wgt>
<wgt id='82'> +5.0123857e+02 </wgt>
<wgt id='83'> +5.1067321e+02 </wgt>
<wgt id='84'> +5.4154797e+02 </wgt>
<wgt id='85'> +5.1531804e+02 </wgt>
<wgt id='86'> +5.0638049e+02 </wgt>
<wgt id='87'> +5.0722835e+02 </wgt>
<wgt id='88'> +5.0747645e+02 </wgt>
<wgt id='89'> +5.1000528e+02 </wgt>
<wgt id='90'> +5.1268791e+02 </wgt>
<wgt id='91'> +5.1853445e+02 </wgt>
<wgt id='92'> +4.6450310e+02 </wgt>
<wgt id='93'> +5.0132941e+02 </wgt>
<wgt id='94'> +4.9302183e+02 </wgt>
<wgt id='95'> +4.9721835e+02 </wgt>
<wgt id='96'> +5.3926130e+02 </wgt>
<wgt id='97'> +5.0096290e+02 </wgt>
<wgt id='98'> +4.9306061e+02 </wgt>
<wgt id='99'> +4.8032475e+02 </wgt>
<wgt id='100'> +4.7584448e+02 </wgt>
<wgt id='101'> +5.5068635e+02 </wgt>
<wgt id='102'> +5.1388322e+02 </wgt>
<wgt id='103'> +5.4118927e+02 </wgt>
<wgt id='104'> +5.0864879e+02 </wgt>
<wgt id='105'> +5.2161909e+02 </wgt>
<wgt id='106'> +4.6426409e+02 </wgt>
<wgt id='107'> +4.8595171e+02 </wgt>
<wgt id='108'> +4.5003538e+02 </wgt>
<wgt id='109'> +4.7728429e+02 </wgt>
<wgt id='110'> +5.0075190e+02 </wgt>
<wgt id='111'> +4.9186480e+02 </wgt>
<wgt id='112'> +4.8107583e+02 </wgt>
<wgt id='113'> +4.7032761e+02 </wgt>
<wgt id='114'> +4.9756682e+02 </wgt>
<wgt id='115'> +4.8391295e+02 </wgt>
<wgt id='116'> +5.1840780e+02 </wgt>
<wgt id='117'> +5.0131060e+02 </wgt>
<wgt id='118'> +5.2559538e+02 </wgt>
<wgt id='119'> +4.9374676e+02 </wgt>
<wgt id='120'> +4.9475458e+02 </wgt>
<wgt id='121'> +4.9542205e+02 </wgt>
<wgt id='122'> +4.9934357e+02 </wgt>
<wgt id='123'> +5.0748189e+02 </wgt>
<wgt id='124'> +5.5270719e+02 </wgt>
<wgt id='125'> +5.5831456e+02 </wgt>
<wgt id='126'> +5.1938288e+02 </wgt>
<wgt id='127'> +5.1661812e+02 </wgt>
<wgt id='128'> +4.6261136e+02 </wgt>
<wgt id='129'> +5.6320403e+02 </wgt>
<wgt id='130'> +5.0082953e+02 </wgt>
<wgt id='131'> +5.2628976e+02 </wgt>
<wgt id='132'> +5.2419181e+02 </wgt>
<wgt id='133'> +5.1548763e+02 </wgt>
<wgt id='134'> +4.8969305e+02 </wgt>
<wgt id='135'> +5.1177945e+02 </wgt>
<wgt id='136'> +5.1556520e+02 </wgt>
<wgt id='137'> +4.8363467e+02 </wgt>
<wgt id='138'> +4.7252263e+02 </wgt>
<wgt id='139'> +5.1845879e+02 </wgt>
<wgt id='140'> +5.2156337e+02 </wgt>
<wgt id='141'> +5.1239503e+02 </wgt>
<wgt id='142'> +4.7992647e+02 </wgt>
<wgt id='143'> +5.1226143e+02 </wgt>
<wgt id='144'> +4.9624719e+02 </wgt>
<wgt id='145'> +5.0126714e+02 </wgt>
</rwgt>
</event>
<event>
 4      1 +5.0481800e+02 1.75500900e+02 7.54677100e-03 1.17223000e-01
       21 -1    0    0  501  502 +0.0000000000e+00 +0.0000000000e+00 +2.5714647025e+02 2.5714647025e+02 0.0000000000e+00 0.0000e+00 1.0000e+00
       21 -1    0    0  502  503 -0.0000000000e+00 -0.0000000000e+00 -1.2185599168e+02 1.2185599168e+02 0.0000000000e+00 0.0000e+00 1.0000e+00
        6  1    1    2  501    0 -2.7583428495e+01 -1.0522169880e+01 +9.2389892131e+01 1.9833419714e+02 1.7300000000e+02 0.0000e+00 1.0000e+00
       -6  1    1    2    0  503 +2.7583428495e+01 +1.0522169880e+01 +4.2900586444e+01 1.8066826479e+02 1.7300000000e+02 0.0000e+00 1.0000e+00
<mgrwt>
<rscale>  2 0.17550089E+03</rscale>
<asrwt>0</asrwt>
<pdfrwt beam="1">  1       21 0.39560995E-01 0.17550089E+03</pdfrwt>
<pdfrwt beam="2">  1       21 0.18747076E-01 0.17550089E+03</pdfrwt>
<totfact> 0.16124744E+05</totfact>
</mgrwt>
<rwgt>
<wgt id='1'> +6.3968234e+02 </wgt>
<wgt id='2'> +6.5684008e+02 </wgt>
<wgt id='3'> +5.0481800e+02 </wgt>
<wgt id='4'> +6.3968235e+02 </wgt>
<wgt id='5'> +5.0338154e+02 </wgt>
<wgt id='6'> +6.2218937e+02 </wgt>
<wgt id='7'> +6.3997993e+02 </wgt>
<wgt id='8'> +4.8082492e+02 </wgt>
<wgt id='9'> +6.2218938e+02 </wgt>
<wgt id='10'> +4.7939224e+02 </wgt>
<wgt id='11'> +5.9261785e+02 </wgt>
<wgt id='12'> +6.1042921e+02 </wgt>
<wgt id='13'> +4.5663636e+02 </wgt>
<wgt id='14'> +5.9261785e+02 </wgt>
<wgt id='15'> +4.5526782e+02 </wgt>
<wgt id='16'> +5.1901105e+02 </wgt>
<wgt id='17'> +5.3124076e+02 </wgt>
<wgt id='18'> +4.2379920e+02 </wgt>
<wgt id='19'> +5.1901105e+02 </wgt>
<wgt id='20'> +4.2271423e+02 </wgt>
<wgt id='21'> +5.1760456e+02 </wgt>
<wgt id='22'> +4.0365680e+02 </wgt>
<wgt id='23'> +5.0481800e+02 </wgt>
<wgt id='24'> +4.0256924e+02 </wgt>
<wgt id='25'> +4.8082492e+02 </wgt>
<wgt id='26'> +4.9370446e+02 </wgt>
<wgt id='27'> +3.8335029e+02 </wgt>
<wgt id='28'> +4.8082492e+02 </wgt>
<wgt id='29'> +3.8231078e+02 </wgt>
<wgt id='30'> +4.3571440e+02 </wgt>
<wgt id='31'> +4.4475174e+02 </wgt>
<wgt id='32'> +3.6108567e+02 </wgt>
<wgt id='33'> +4.3571440e+02 </wgt>
<wgt id='34'> +3.6021844e+02 </wgt>
<wgt id='35'> +4.2379920e+02 </wgt>
<wgt id='36'> +4.3333559e+02 </wgt>
<wgt id='37'> +3.4392393e+02 </wgt>
<wgt id='38'> +4.2379920e+02 </wgt>
<wgt id='39'> +3.4305176e+02 </wgt>
<wgt id='40'> +4.0365680e+02 </wgt>
<wgt id='41'> +4.1332657e+02 </wgt>
<wgt id='42'> +3.2662236e+02 </wgt>
<wgt id='43'> +4.0365680e+02 </wgt>
<wgt id='44'> +3.2578839e+02 </wgt>
<wgt id='45'> +5.0481800e+02 </wgt>
<wgt id='46'> +4.9994076e+02 </wgt>
<wgt id='47'> +5.1915166e+02 </wgt>
<wgt id='48'> +5.0295343e+02 </wgt>
<wgt id='49'> +5.0420954e+02 </wgt>
<wgt id='50'> +5.7294748e+02 </wgt>
<wgt id='51'> +4.9522901e+02 </wgt>
<wgt id='52'> +5.0097324e+02 </wgt>
<wgt id='53'> +5.1433763e+02 </wgt>
<wgt id='54'> +5.0758318e+02 </wgt>
<wgt id='55'> +4.5382836e+02 </wgt>
<wgt id='56'> +4.7598104e+02 </wgt>
<wgt id='57'> +4.9204033e+02 </wgt>
<wgt id='58'> +5.1316714e+02 </wgt>
<wgt id='59'> +4.9273636e+02 </wgt>
<wgt id='60'> +4.8038351e+02 </wgt>
<wgt id='61'> +5.0176326e+02 </wgt>
<wgt id='62'> +4.9730377e+02 </wgt>
<wgt id='63'> +5.0525578e+02 </wgt>
<wgt id='64'> +5.0487695e+02 </wgt>
<wgt id='65'> +5.9306437e+02 </wgt>
<wgt id='66'> +4.9198648e+02 </wgt>
<wgt id='67'> +5.0935014e+02 </wgt>
<wgt id='68'> +5.3413146e+02 </wgt>
<wgt id='69'> +4.8599362e+02 </wgt>
<wgt id='70'> +4.9775364e+02 </wgt>
<wgt id='71'> +5.1460127e+02 </wgt>
<wgt id='72'> +5.0094042e+02 </wgt>
<wgt id='73'> +5.0096212e+02 </wgt>
<wgt id='74'> +5.1400971e+02 </wgt>
<wgt id='75'> +5.1412323e+02 </wgt>
<wgt id='76'> +4.9196224e+02 </wgt>
<wgt id='77'> +4.8372451e+02 </wgt>
<wgt id='78'> +5.1072916e+02 </wgt>
<wgt id='79'> +4.8166211e+02 </wgt>
<wgt id='80'> +5.0267522e+02 </wgt>
<wgt id='81'> +4.9789022e+02 </wgt>
<wgt id='82'> +5.2105912e+02 </wgt>
<wgt id='83'> +5.1196984e+02 </wgt>
<wgt id='84'> +5.5010672e+02 </wgt>
<wgt id='85'> +5.3039307e+02 </wgt>
<wgt id='86'> +4.9824136e+02 </wgt>
<wgt id='87'> +5.0299844e+02 </wgt>
<wgt id='88'> +5.1140520e+02 </wgt>
<wgt id='89'> +5.1417295e+02 </wgt>
<wgt id='90'> +5.0875364e+02 </wgt>
<wgt id='91'> +5.3791253e+02 </wgt>
<wgt id='92'> +4.7531797e+02 </wgt>
<wgt id='93'> +4.9343580e+02 </wgt>
<wgt id='94'> +5.0609202e+02 </wgt>
<wgt id='95'> +4.8721759e+02 </wgt>
<wgt id='96'> +5.3740596e+02 </wgt>
<wgt id='97'> +5.1554895e+02 </wgt>
<wgt id='98'> +4.8092292e+02 </wgt>
<wgt id='99'> +4.9271166e+02 </wgt>
<wgt id='100'> +5.1009725e+02 </wgt>
<wgt id='101'> +5.1946573e+02 </wgt>
<wgt id='102'> +4.8180096e+02 </wgt>
<wgt id='103'> +5.4292713e+02 </wgt>
<wgt id='104'> +5.0096594e+02 </wgt>
<wgt id='105'> +5.2826214e+02 </wgt>
<wgt id='106'> +4.7401773e+02 </wgt>
<wgt id='107'> +5.0762635e+02 </wgt>
<wgt id='108'> +4.6185538e+02 </wgt>
<wgt id='109'> +4.8023364e+02 </wgt>
<wgt id='110'> +5.0773158e+02 </wgt>
<wgt id='111'> +4.9502109e+02 </wgt>
<wgt id='112'> +4.8696965e+02 </wgt>
<wgt id='113'> +4.6853882e+02 </wgt>
<wgt id='114'> +5.1219912e+02 </wgt>
<wgt id='115'> +5.1414940e+02 </wgt>
<wgt id='116'> +4.9655860e+02 </wgt>
<wgt id='117'> +5.1429716e+02 </wgt>
<wgt id='118'> +5.1027957e+02 </wgt>
<wgt id='119'> +4.8840689e+02 </wgt>
<wgt id='120'> +5.0780343e+02 </wgt>
<wgt id='121'> +4.9390225e+02 </wgt>
<wgt id='122'> +4.9949744e+02 </wgt>
<wgt id='123'> +5.0892766e+02 </wgt>
<wgt id='124'> +5.2940257e+02 </wgt>
<wgt id='125'> +5.3150874e+02 </wgt>
<wgt id='126'> +5.2037331e+02 </wgt>
<wgt id='127'> +5.1669616e+02 </wgt>
<wgt id='128'> +4.7385049e+02 </wgt>
<wgt id='129'> +5.6752437e+02 </wgt>
<wgt id='130'> +5.0661560e+02 </wgt>
<wgt id='131'> +5.4036407e+02 </wgt>
<wgt id='132'> +4.9462402e+02 </wgt>
<wgt id='133'> +4.9581275e+02 </wgt>
<wgt id='134'> +4.7456377e+02 </wgt>
<wgt id='135'> +5.1761994e+02 </wgt>
<wgt id='136'> +4.8061035e+02 </wgt>
<wgt id='137'> +4.7354455e+02 </wgt>
<wgt id='138'> +4.5302595e+02 </wgt>
<wgt id='139'> +5.1147282e+02 </wgt>
<wgt id='140'> +5.3919961e+02 </wgt>
<wgt id='141'> +5.0210496e+02 </wgt>
<wgt id='142'> +5.1525896e+02 </wgt>
<wgt id='143'> +4.9792390e+02 </wgt>
<wgt id='144'> +5.0876884e+02 </wgt>
<wgt id='145'> +5.0579199e+02 </wgt>
</rwgt>
</event>
<event>
 4      1 +5.0481800e+02 2.22451800e+02 7.54677100e-03 1.13206800e-01
       21 -1    0    0  503  502 +0.0000000000e+00 +0.0000000000e+00 +1.0007298973e+03 1.0007298973e+03 0.0000000000e+00 0.0000e+00 -1.0000e+00
       21 -1    0    0  501  503 -0.0000000000e+00 -0.0000000000e+00 -1.0071691903e+02 1.0071691903e+02 0.0000000000e+00 0.0000e+00 -1.0000e+00
        6  1    1    2  501    0 -1.2387732943e+02 -6.4886293544e+01 +5.7084527983e+01 2.2965945914e+02 1.7300000000e+02 0.0000e+00 -1.0000e+00
       -6  1    1    2    0  502 +1.2387732943e+02 +6.4886293544e+01 +8.4292845025e+02 8.7178735715e+02 1.7300000000e+02 0.0000e+00 -1.0000e+00
<mgrwt>
<rscale>  2 0.22245185E+03</rscale>
<asrwt>0</asrwt>
<pdfrwt beam="1">  1       21 0.15395844E+00 0.22245185E+03</pdfrwt>
<pdfrwt beam="2">  1       21 0.15494911E-01 0.22245185E+03</pdfrwt>
<totfact> 0.10094202E+04</totfact>
</mgrwt>
<rwgt>
<wgt id='1'> +6.7568223e+02 </wgt>
<wgt id='2'> +5.5370352e+02 </wgt>
<wgt id='3'> +5.0481800e+02 </wgt>
<wgt id='4'> +6.7568223e+02 </wgt>
<wgt id='5'> +4.3783697e+02 </wgt>
<wgt id='6'> +6.1462613e+02 </wgt>
<wgt id='7'> +4.9883285e+02 </wgt>
<wgt id='8'> +4.5485153e+02 </wgt>
<wgt id='9'> +6.1462613e+02 </wgt>
<wgt id='10'> +3.9513422e+02 </wgt>
<wgt id='11'> +5.5379094e+02 </wgt>
<wgt id='12'> +4.5041674e+02 </wgt>
<wgt id='13'> +4.1114548e+02 </wgt>
<wgt id='14'> +5.5379094e+02 </wgt>
<wgt id='15'> +3.5779895e+02 </wgt>
<wgt id='16'> +5.5496592e+02 </wgt>
<wgt id='17'> +4.6502689e+02 </wgt>
<wgt id='18'> +4.2631976e+02 </wgt>
<wgt id='19'> +5.5496592e+02 </wgt>
<wgt id='20'> +3.7234305e+02 </wgt>
<wgt id='21'> +4.1894386e+02 </wgt>
<wgt id='22'> +3.8412298e+02 </wgt>
<wgt id='23'> +5.0481800e+02 </wgt>
<wgt id='24'> +3.3602800e+02 </wgt>
<wgt id='25'> +4.5485153e+02 </wgt>
<wgt id='26'> +3.7828168e+02 </wgt>
<wgt id='27'> +3.4721313e+02 </wgt>
<wgt id='28'> +4.5485153e+02 </wgt>
<wgt id='29'> +3.0427754e+02 </wgt>
<wgt id='30'> +4.6866977e+02 </wgt>
<wgt id='31'> +3.9630161e+02 </wgt>
<wgt id='32'> +3.6478647e+02 </wgt>
<wgt id='33'> +4.6866977e+02 </wgt>
<wgt id='34'> +3.2051770e+02 </wgt>
<wgt id='35'> +4.2631976e+02 </wgt>
<wgt id='36'> +3.5702908e+02 </wgt>
<wgt id='37'> +3.2868021e+02 </wgt>
<wgt id='38'> +4.2631976e+02 </wgt>
<wgt id='39'> +2.8925723e+02 </wgt>
<wgt id='40'> +3.8412298e+02 </wgt>
<wgt id='41'> +3.2237627e+02 </wgt>
<wgt id='42'> +2.9709778e+02 </wgt>
<wgt id='43'> +3.8412298e+02 </wgt>
<wgt id='44'> +2.6192603e+02 </wgt>
<wgt id='45'> +5.0481800e+02 </wgt>
<wgt id='46'> +5.2045240e+02 </wgt>
<wgt id='47'> +5.2190916e+02 </wgt>
<wgt id='48'> +5.0711344e+02 </wgt>
<wgt id='49'> +4.7935735e+02 </wgt>
<wgt id='50'> +6.0953882e+02 </wgt>
<wgt id='51'> +4.8222576e+02 </wgt>
<wgt id='52'> +4.8961433e+02 </wgt>
<wgt id='53'> +5.0011394e+02 </wgt>
<wgt id='54'> +5.2679869e+02 </wgt>
<wgt id='55'> +5.1941293e+02 </wgt>
<wgt id='56'> +4.6682454e+02 </wgt>
<wgt id='57'> +5.2381387e+02 </wgt>
<wgt id='58'> +4.7152659e+02 </wgt>
<wgt id='59'> +5.4068566e+02 </wgt>
<wgt id='60'> +5.0491468e+02 </wgt>
<wgt id='61'> +4.4863475e+02 </wgt>
<wgt id='62'> +4.8012147e+02 </wgt>
<wgt id='63'> +5.1971059e+02 </wgt>
<wgt id='64'> +4.9930764e+02 </wgt>
<wgt id='65'> +5.1617454e+02 </wgt>
<wgt id='66'> +5.0312770e+02 </wgt>
<wgt id='67'> +5.0725021e+02 </wgt>
<wgt id='68'> +5.8627382e+02 </wgt>
<wgt id='69'> +5.2729749e+02 </wgt>
<wgt id='70'> +5.1667394e+02 </wgt>
<wgt id='71'> +4.9065340e+02 </wgt>
<wgt id='72'> +4.7135756e+02 </wgt>
<wgt id='73'> +4.6868396e+02 </wgt>
<wgt id='74'> +5.5801625e+02 </wgt>
<wgt id='75'> +5.3101028e+02 </wgt>
<wgt id='76'> +5.0948280e+02 </wgt>
<wgt id='77'> +4.8777802e+02 </wgt>
<wgt id='78'> +4.5514556e+02 </wgt>
<wgt id='79'> +5.1883288e+02 </wgt>
<wgt id='80'> +4.6813631e+02 </wgt>
<wgt id='81'> +5.0611870e+02 </wgt>
<wgt id='82'> +4.8923850e+02 </wgt>
<wgt id='83'> +5.0530869e+02 </wgt>
<wgt id='84'> +5.2111080e+02 </wgt>
<wgt id='85'> +4.8465836e+02 </wgt>
<wgt id='86'> +5.1905334e+02 </wgt>
<wgt id='87'> +5.0453150e+02 </wgt>
<wgt id='88'> +4.9963605e+02 </wgt>
<wgt id='89'> +4.7292475e+02 </wgt>
<wgt id='90'> +4.9499183e+02 </wgt>
<wgt id='91'> +4.7809449e+02 </wgt>
<wgt id='92'> +4.6145641e+02 </wgt>
<wgt id='93'> +5.0649184e+02 </wgt>
<wgt id='94'> +4.7354555e+02 </wgt>
<wgt id='95'> +5.1679221e+02 </wgt>
<wgt id='96'> +5.3698536e+02 </wgt>
<wgt id='97'> +4.7694259e+02 </wgt>
<wgt id='98'> +5.1722021e+02 </wgt>
<wgt id='99'> +4.4819763e+02 </wgt>
<wgt id='100'> +4.2137708e+02 </wgt>
<wgt id='101'> +5.8050609e+02 </wgt>
<wgt id='102'> +5.4926594e+02 </wgt>
<wgt id='103'> +5.1587170e+02 </wgt>
<wgt id='104'> +5.2692011e+02 </wgt>
<wgt id='105'> +5.1866073e+02 </wgt>
<wgt id='106'> +4.7016148e+02 </wgt>
<wgt id='107'> +4.7768838e+02 </wgt>
<wgt id='108'> +4.5409825e+02 </wgt>
<wgt id='109'> +4.8579078e+02 </wgt>
<wgt id='110'> +4.8126428e+02 </wgt>
<wgt id='111'> +4.9106152e+02 </wgt>
<wgt id='112'> +5.0118379e+02 </wgt>
<wgt id='113'> +4.9360088e+02 </wgt>
<wgt id='114'> +5.0809335e+02 </wgt>
<wgt id='115'> +4.6782978e+02 </wgt>
<wgt id='116'> +5.4275596e+02 </wgt>
<wgt id='117'> +4.9476710e+02 </wgt>
<wgt id='118'> +5.2970549e+02 </wgt>
<wgt id='119'> +5.2150671e+02 </wgt>
<wgt id='120'> +5.0185213e+02 </wgt>
<wgt id='121'> +4.9788571e+02 </wgt>
<wgt id='122'> +4.9680599e+02 </wgt>
<wgt id='123'> +4.9743715e+02 </wgt>
<wgt id='124'> +5.7169977e+02 </wgt>
<wgt id='125'> +6.0317379e+02 </wgt>
<wgt id='126'> +5.0829777e+02 </wgt>
<wgt id='127'> +5.0187732e+02 </wgt>
<wgt id='128'> +4.6938344e+02 </wgt>
<wgt id='129'> +5.4375611e+02 </wgt>
<wgt id='130'> +4.9087262e+02 </wgt>
<wgt id='131'> +4.9461826e+02 </wgt>
<wgt id='132'> +5.4648016e+02 </wgt>
<wgt id='133'> +5.3828262e+02 </wgt>
<wgt id='134'> +5.1051950e+02 </wgt>
<wgt id='135'> +4.9651437e+02 </wgt>
<wgt id='136'> +5.6344151e+02 </wgt>
<wgt id='137'> +5.0462349e+02 </wgt>
<wgt id='138'> +4.9816886e+02 </wgt>
<wgt id='139'> +5.2116782e+02 </wgt>
<wgt id='140'> +5.0375569e+02 </wgt>
<wgt id='141'> +5.4283603e+02 </wgt>
<wgt id='142'> +4.1225447e+02 </wgt>
<wgt id='143'> +5.1811103e+02 </wgt>
<wgt id='144'> +4.7352632e+02 </wgt>
<wgt id='145'> +4.8177143e+02 </wgt>
</rwgt>
</event>
<event>
 4      1 +5.0481800e+02 1.97258600e+02 7.54677100e-03 1.15207300e-01
       21 -1    0    0  501  502 +0.0000000000e+00 +0.0000000000e+00 +2.9272184085e+02 2.9272184085e+02 0.0000000000e+00 0.0000e+00 1.0000e+00
       21 -1    0    0  502  503 -0.0000000000e+00 -0.0000000000e+00 -3.2273702102e+02 3.2273702102e+02 0.0000000000e+00 0.0000e+00 1.0000e+00
        6  1    1    2  501    0 -6.0692554884e+01 -7.2789807175e+01 +2.2098752474e+02 2.9622023620e+02 1.7300000000e+02 0.0000e+00 1.0000e+00
       -6  1    1    2    0  503 +6.0692554884e+01 +7.2789807175e+01 -2.5100270491e+02 3.1923862567e+02 1.7300000000e+02 0.0000e+00 1.0000e+00
<mgrwt>
<rscale>  2 0.19725857E+03</rscale>
<asrwt>0</asrwt>
<pdfrwt beam="1">  1       21 0.45034129E-01 0.19725857E+03</pdfrwt>
<pdfrwt beam="2">  1       21 0.49651850E-01 0.19725857E+03</pdfrwt>
<totfact> 0.18241219E+04</totfact>
</mgrwt>
<rwgt>
<wgt id='1'> +6.6406614e+02 </wgt>
<wgt id='2'> +6.2435829e+02 </wgt>
<wgt id='3'> +5.0481800e+02 </wgt>
<wgt id='4'> +6.6406615e+02 </wgt>
<wgt id='5'> +4.2758291e+02 </wgt>
<wgt id='6'> +6.1873944e+02 </wgt>
<wgt id='7'> +5.7931357e+02 </wgt>
<wgt id='8'> +4.6361368e+02 </wgt>
<wgt id='9'> +6.1873945e+02 </wgt>
<wgt id='10'> +3.9314306e+02 </wgt>
<wgt id='11'> +5.6823661e+02 </wgt>
<wgt id='12'> +5.3225746e+02 </wgt>
<wgt id='13'> +4.2657323e+02 </wgt>
<wgt id='14'> +5.6823662e+02 </wgt>
<wgt id='15'> +3.6223492e+02 </wgt>
<wgt id='16'> +5.4179921e+02 </wgt>
<wgt id='17'> +5.1368428e+02 </wgt>
<wgt id='18'> +4.2527286e+02 </wgt>
<wgt id='19'> +5.4179921e+02 </wgt>
<wgt id='20'> +3.6339976e+02 </wgt>
<wgt id='21'> +4.7662420e+02 </wgt>
<wgt id='22'> +3.9056118e+02 </wgt>
<wgt id='23'> +5.0481800e+02 </wgt>
<wgt id='24'> +3.3412958e+02 </wgt>
<wgt id='25'> +4.6361368e+02 </wgt>
<wgt id='26'> +4.3790928e+02 </wgt>
<wgt id='27'> +3.5935726e+02 </wgt>
<wgt id='28'> +4.6361368e+02 </wgt>
<wgt id='29'> +3.0786095e+02 </wgt>
<wgt id='30'> +4.5642686e+02 </wgt>
<wgt id='31'> +4.3406690e+02 </wgt>
<wgt id='32'> +3.6311337e+02 </wgt>
<wgt id='33'> +4.5642687e+02 </wgt>
<wgt id='34'> +3.1265508e+02 </wgt>
<wgt id='35'> +4.2527285e+02 </wgt>
<wgt id='36'> +4.0275087e+02 </wgt>
<wgt id='37'> +3.3347529e+02 </wgt>
<wgt id='38'> +4.2527286e+02 </wgt>
<wgt id='39'> +2.8747215e+02 </wgt>
<wgt id='40'> +3.9056118e+02 </wgt>
<wgt id='41'> +3.7003649e+02 </wgt>
<wgt id='42'> +3.0683225e+02 </wgt>
<wgt id='43'> +3.9056118e+02 </wgt>
<wgt id='44'> +2.6487164e+02 </wgt>
<wgt id='45'> +5.0481800e+02 </wgt>
<wgt id='46'> +5.1224392e+02 </wgt>
<wgt id='47'> +5.2784070e+02 </wgt>
<wgt id='48'> +5.1121012e+02 </wgt>
<wgt id='49'> +5.0360619e+02 </wgt>
<wgt id='50'> +6.1343651e+02 </wgt>
<wgt id='51'> +4.9506987e+02 </wgt>
<wgt id='52'> +5.0400873e+02 </wgt>
<wgt id='53'> +5.0517000e+02 </wgt>
<wgt id='54'> +5.0764399e+02 </wgt>
<wgt id='55'> +4.4698039e+02 </wgt>
<wgt id='56'> +4.6035549e+02 </wgt>
<wgt id='57'> +4.9016376e+02 </wgt>
<wgt id='58'> +5.0166665e+02 </wgt>
<wgt id='59'> +5.0466875e+02 </wgt>
<wgt id='60'> +4.9067050e+02 </wgt>
<wgt id='61'> +4.7751899e+02 </wgt>
<wgt id='62'> +4.9978613e+02 </wgt>
<wgt id='63'> +5.0511290e+02 </wgt>
<wgt id='64'> +4.9302894e+02 </wgt>
<wgt id='65'> +5.9850764e+02 </wgt>
<wgt id='66'> +4.9377315e+02 </wgt>
<wgt id='67'> +5.0937404e+02 </wgt>
<wgt id='68'> +5.5050910e+02 </wgt>
<wgt id='69'> +5.0112573e+02 </wgt>
<wgt id='70'> +4.9432564e+02 </wgt>
<wgt id='71'> +5.1439312e+02 </wgt>
<wgt id='72'> +4.7656923e+02 </wgt>
<wgt id='73'> +4.9468418e+02 </wgt>
<wgt id='74'> +5.2836139e+02 </wgt>
<wgt id='75'> +5.1838416e+02 </wgt>
<wgt id='76'> +4.8713457e+02 </wgt>
<wgt id='77'> +4.9040030e+02 </wgt>
<wgt id='78'> +4.9722251e+02 </wgt>
<wgt id='79'> +4.8778335e+02 </wgt>
<wgt id='80'> +4.9760091e+02 </wgt>
<wgt id='81'> +4.9192223e+02 </wgt>
<wgt id='82'> +5.1492962e+02 </wgt>
<wgt id='83'> +5.1991086e+02 </wgt>
<wgt id='84'> +5.6083664e+02 </wgt>
<wgt id='85'> +5.3306818e+02 </wgt>
<wgt id='86'> +5.0610386e+02 </wgt>
<wgt id='87'> +5.0767891e+02 </wgt>
<wgt id='88'> +5.1633381e+02 </wgt>
<wgt id='89'> +5.2156843e+02 </wgt>
<wgt id='90'> +5.1358570e+02 </wgt>
<wgt id='91'> +5.3657722e+02 </wgt>
<wgt id='92'> +4.4906385e+02 </wgt>
<wgt id='93'> +5.0013654e+02 </wgt>
<wgt id='94'> +4.9678243e+02 </wgt>
<wgt id='95'> +4.7951131e+02 </wgt>
<wgt id='96'> +5.5761140e+02 </wgt>
<wgt id='97'> +5.0867792e+02 </wgt>
<wgt id='98'> +4.8193419e+02 </wgt>
<wgt id='99'> +4.8708151e+02 </wgt>
<wgt id='100'> +4.8872276e+02 </wgt>
<wgt id='101'> +5.4633027e+02 </wgt>
<wgt id='102'> +5.0229427e+02 </wgt>
<wgt id='103'> +5.5686668e+02 </wgt>
<wgt id='104'> +5.0782786e+02 </wgt>
<wgt id='105'> +5.1991283e+02 </wgt>
<wgt id='106'> +4.5037658e+02 </wgt>
<wgt id='107'> +4.8586241e+02 </wgt>
<wgt id='108'> +4.3837666e+02 </wgt>
<wgt id='109'> +4.6543304e+02 </wgt>
<wgt id='110'> +5.0348249e+02 </wgt>
<wgt id='111'> +4.8650760e+02 </wgt>
<wgt id='112'> +4.7363879e+02 </wgt>
<wgt id='113'> +4.5565994e+02 </wgt>
<wgt id='114'> +4.9070953e+02 </wgt>
<wgt id='115'> +4.9270513e+02 </wgt>
<wgt id='116'> +5.1552083e+02 </wgt>
<wgt id='117'> +5.0727325e+02 </wgt>
<wgt id='118'> +5.2818249e+02 </wgt>
<wgt id='119'> +4.8026341e+02 </wgt>
<wgt id='120'> +4.9440780e+02 </wgt>
<wgt id='121'> +4.8605373e+02 </wgt>
<wgt id='122'> +4.9642195e+02 </wgt>
<wgt id='123'> +5.1458305e+02 </wgt>
<wgt id='124'> +5.5309502e+02 </wgt>
<wgt id='125'> +5.5272631e+02 </wgt>
<wgt id='126'> +5.2987569e+02 </wgt>
<wgt id='127'> +5.2456658e+02 </wgt>
<wgt id='128'> +4.6062829e+02 </wgt>
<wgt id='129'> +5.7834543e+02 </wgt>
<wgt id='130'> +5.1150371e+02 </wgt>
<wgt id='131'> +5.4191240e+02 </wgt>
<wgt id='132'> +5.0667756e+02 </wgt>
<wgt id='133'> +5.0920674e+02 </wgt>
<wgt id='134'> +4.7497309e+02 </wgt>
<wgt id='135'> +5.1854418e+02 </wgt>
<wgt id='136'> +4.8862215e+02 </wgt>
<wgt id='137'> +4.7737073e+02 </wgt>
<wgt id='138'> +4.6672243e+02 </wgt>
<wgt id='139'> +5.1927033e+02 </wgt>
<wgt id='140'> +5.3333274e+02 </wgt>
<wgt id='141'> +5.0626429e+02 </wgt>
<wgt id='142'> +4.9903850e+02 </wgt>
<wgt id='143'> +5.0428633e+02 </wgt>
<wgt id='144'> +4.9881240e+02 </wgt>
<wgt id='145'> +5.0645697e+02 </wgt>
</rwgt>
</event>
<event>
 4      1 +5.0481800e+02 2.61919800e+02 7.54677100e-03 1.10599500e-01
       21 -1    0    0  503  502 +0.0000000000e+00 +0.0000000000e+00 +1.2811445192e+03 1.2811445192e+03 0.0000000000e+00 0.0000e+00 -1.0000e+00
       21 -1    0    0  501  503 -0.0000000000e+00 -0.0000000000e+00 -7.9845798742e+01 7.9845798742e+01 0.0000000000e+00 0.0000e+00 -1.0000e+00
        6  1    1    2  501    0 +1.3344745246e+02 +1.4444635508e+02 +2.1011111763e+02 3.3578066326e+02 1.7300000000e+02 0.0000e+00 -1.0000e+00
       -6  1    1    2    0  502 -1.3344745246e+02 -1.4444635508e+02 +9.9118760281e+02 1.0252096547e+03 1.7300000000e+02 0.0000e+00 -1.0000e+00
<mgrwt>
<rscale>  2 0.26191978E+03</rscale>
<asrwt>0</asrwt>
<pdfrwt beam="1">  1       21 0.19709914E+00 0.26191978E+03</pdfrwt>
<pdfrwt beam="2">  1       21 0.12283970E-01 0.26191978E+03</pdfrwt>
<totfact> 0.74830032E+03</totfact>
</mgrwt>
<rwgt>
<wgt id='1'> +6.8235367e+02 </wgt>
<wgt id='2'> +5.4949573e+02 </wgt>
<wgt id='3'> +5.0481800e+02 </wgt>
<wgt id='4'> +6.8235366e+02 </wgt>
<wgt id='5'> +4.6450919e+02 </wgt>
<wgt id='6'> +6.0941162e+02 </wgt>
<wgt id='7'> +4.8839610e+02 </wgt>
<wgt id='8'> +4.4928588e+02 </wgt>
<wgt id='9'> +6.0941161e+02 </wgt>
<wgt id='10'> +4.1392893e+02 </wgt>
<wgt id='11'> +5.4237376e+02 </wgt>
<wgt id='12'> +4.3604135e+02 </wgt>
<wgt id='13'> +4.0165099e+02 </wgt>
<wgt id='14'> +5.4237376e+02 </wgt>
<wgt id='15'> +3.7053387e+02 </wgt>
<wgt id='16'> +5.6524097e+02 </wgt>
<wgt id='17'> +4.6373407e+02 </wgt>
<wgt id='18'> +4.2770736e+02 </wgt>
<wgt id='19'> +5.6524097e+02 </wgt>
<wgt id='20'> +3.9508083e+02 </wgt>
<wgt id='21'> +4.1217047e+02 </wgt>
<wgt id='22'> +3.8065774e+02 </wgt>
<wgt id='23'> +5.0481800e+02 </wgt>
<wgt id='24'> +3.5206060e+02 </wgt>
<wgt id='25'> +4.4928588e+02 </wgt>
<wgt id='26'> +3.6798690e+02 </wgt>
<wgt id='27'> +3.4029905e+02 </wgt>
<wgt id='28'> +4.4928588e+02 </wgt>
<wgt id='29'> +3.1515163e+02 </wgt>
<wgt id='30'> +4.7890076e+02 </wgt>
<wgt id='31'> +3.9654724e+02 </wgt>
<wgt id='32'> +3.6700537e+02 </wgt>
<wgt id='33'> +4.7890076e+02 </wgt>
<wgt id='34'> +3.4013122e+02 </wgt>
<wgt id='35'> +4.2770736e+02 </wgt>
<wgt id='36'> +3.5245429e+02 </wgt>
<wgt id='37'> +3.2663322e+02 </wgt>
<wgt id='38'> +4.2770736e+02 </wgt>
<wgt id='39'> +3.0309444e+02 </wgt>
<wgt id='40'> +3.8065774e+02 </wgt>
<wgt id='41'> +3.1467213e+02 </wgt>
<wgt id='42'> +2.9200241e+02 </wgt>
<wgt id='43'> +3.8065774e+02 </wgt>
<wgt id='44'> +2.7131893e+02 </wgt>
<wgt id='45'> +5.0481800e+02 </wgt>
<wgt id='46'> +5.1898257e+02 </wgt>
<wgt id='47'> +5.2930352e+02 </wgt>
<wgt id='48'> +5.0503921e+02 </wgt>
<wgt id='49'> +4.6514821e+02 </wgt>
<wgt id='50'> +6.0282838e+02 </wgt>
<wgt id='51'> +4.7524542e+02 </wgt>
<wgt id='52'> +4.6954050e+02 </wgt>
<wgt id='53'> +5.1018577e+02 </wgt>
<wgt id='54'> +5.3556901e+02 </wgt>
<wgt id='55'> +5.5849791e+02 </wgt>
<wgt id='56'> +4.7958484e+02 </wgt>
<wgt id='57'> +5.3408997e+02 </wgt>
<wgt id='58'> +4.5554416e+02 </wgt>
<wgt id='59'> +5.4582366e+02 </wgt>
<wgt id='60'> +4.9926279e+02 </wgt>
<wgt id='61'> +4.3905988e+02 </wgt>
<wgt id='62'> +4.6465459e+02 </wgt>
<wgt id='63'> +5.3137854e+02 </wgt>
<wgt id='64'> +5.0355710e+02 </wgt>
<wgt id='65'> +4.7227556e+02 </wgt>
<wgt id='66'> +5.1142771e+02 </wgt>
<wgt id='67'> +5.0845834e+02 </wgt>
<wgt id='68'> +6.1811843e+02 </wgt>
<wgt id='69'> +5.5011859e+02 </wgt>
<wgt id='70'> +5.4603293e+02 </wgt>
<wgt id='71'> +4.7095661e+02 </wgt>
<wgt id='72'> +4.5725104e+02 </wgt>
<wgt id='73'> +4.5557535e+02 </wgt>
<wgt id='74'> +5.8249647e+02 </wgt>
<wgt id='75'> +5.5323285e+02 </wgt>
<wgt id='76'> +5.1690816e+02 </wgt>
<wgt id='77'> +4.7465401e+02 </wgt>
<wgt id='78'> +4.3610240e+02 </wgt>
<wgt id='79'> +5.3860075e+02 </wgt>
<wgt id='80'> +4.4704029e+02 </wgt>
<wgt id='81'> +5.2257148e+02 </wgt>
<wgt id='82'> +4.9714951e+02 </wgt>
<wgt id='83'> +5.0196873e+02 </wgt>
<wgt id='84'> +4.9910716e+02 </wgt>
<wgt id='85'> +4.5909904e+02 </wgt>
<wgt id='86'> +5.3180132e+02 </wgt>
<wgt id='87'> +4.9717837e+02 </wgt>
<wgt id='88'> +4.9799568e+02 </wgt>
<wgt id='89'> +4.2906476e+02 </wgt>
<wgt id='90'> +4.6938467e+02 </wgt>
<wgt id='91'> +4.4340281e+02 </wgt>
<wgt id='92'> +4.6839379e+02 </wgt>
<wgt id='93'> +5.1030318e+02 </wgt>
<wgt id='94'> +4.6292937e+02 </wgt>
<wgt id='95'> +5.2623689e+02 </wgt>
<wgt id='96'> +5.3383142e+02 </wgt>
<wgt id='97'> +4.5855976e+02 </wgt>
<wgt id='98'> +5.4360766e+02 </wgt>
<wgt id='99'> +4.2299234e+02 </wgt>
<wgt id='100'> +3.8568439e+02 </wgt>
<wgt id='101'> +5.9028655e+02 </wgt>
<wgt id='102'> +5.6704459e+02 </wgt>
<wgt id='103'> +4.8500897e+02 </wgt>
<wgt id='104'> +5.4306587e+02 </wgt>
<wgt id='105'> +5.1671788e+02 </wgt>
<wgt id='106'> +4.8622310e+02 </wgt>
<wgt id='107'> +4.8774350e+02 </wgt>
<wgt id='108'> +4.6742686e+02 </wgt>
<wgt id='109'> +4.9525488e+02 </wgt>
<wgt id='110'> +4.6176670e+02 </wgt>
<wgt id='111'> +4.8889559e+02 </wgt>
<wgt id='112'> +5.2207673e+02 </wgt>
<wgt id='113'> +5.2754711e+02 </wgt>
<wgt id='114'> +5.2047033e+02 </wgt>
<wgt id='115'> +4.6674793e+02 </wgt>
<wgt id='116'> +5.5582054e+02 </wgt>
<wgt id='117'> +4.9664950e+02 </wgt>
<wgt id='118'> +5.2104258e+02 </wgt>
<wgt id='119'> +5.4884699e+02 </wgt>
<wgt id='120'> +5.0534864e+02 </wgt>
<wgt id='121'> +4.9238350e+02 </wgt>
<wgt id='122'> +4.9242086e+02 </wgt>
<wgt id='123'> +4.8309962e+02 </wgt>
<wgt id='124'> +5.7183293e+02 </wgt>
<wgt id='125'> +6.3735250e+02 </wgt>
<wgt id='126'> +4.9625796e+02 </wgt>
<wgt id='127'> +4.8407940e+02 </wgt>
<wgt id='128'> +4.8651461e+02 </wgt>
<wgt id='129'> +5.1913584e+02 </wgt>
<wgt id='130'> +4.9849644e+02 </wgt>
<wgt id='131'> +4.6719543e+02 </wgt>
<wgt id='132'> +5.4853572e+02 </wgt>
<wgt id='133'> +5.5014098e+02 </wgt>
<wgt id='134'> +5.2793576e+02 </wgt>
<wgt id='135'> +4.8378425e+02 </wgt>
<wgt id='136'> +5.8993685e+02 </wgt>
<wgt id='137'> +5.3083484e+02 </wgt>
<wgt id='138'> +5.1782693e+02 </wgt>
<wgt id='139'> +5.2052839e+02 </wgt>
<wgt id='140'> +4.9458914e+02 </wgt>
<wgt id='141'> +5.7581682e+02 </wgt>
<wgt id='142'> +3.5562334e+02 </wgt>
<wgt id='143'> +5.1563139e+02 </wgt>
<wgt id='144'> +4.5768522e+02 </wgt>
<wgt id='145'> +4.6658751e+02 </wgt>
</rwgt>
</event>
<event>
 4      1 +5.0481800e+02 1.75376200e+02 7.54677100e-03 1.17235500e-01
       21 -1    0    0  503  502 +0.0000000000e+00 +0.0000000000e+00 +2.5228489644e+01 2.5228489644e+01 0.0000000000e+00 0.0000e+00 -1.0000e+00
       21 -1    0    0  501  503 -0.0000000000e+00 -0.0000000000e+00 -1.2967443579e+03 1.2967443579e+03 0.0000000000e+00 0.0000e+00 -1.0000e+00
        6  1    1    2  501    0 +1.8097022548e+01 +2.2367230106e+01 -7.9746830511e+02 8.1652464315e+02 1.7300000000e+02 0.0000e+00 1.0000e+00
       -6  1    1    2    0  502 -1.8097022548e+01 -2.2367230106e+01 -4.7404756316e+02 5.0544820442e+02 1.7300000000e+02 0.0000e+00 1.0000e+00
<mgrwt>
<rscale>  2 0.17537615E+03</rscale>
<asrwt>0</asrwt>
<pdfrwt beam="1">  1       21 0.38813053E-02 0.17537615E+03</pdfrwt>
<pdfrwt beam="2">  1       21 0.19949917E+00 0.17537615E+03</pdfrwt>
<totfact> 0.56377927E+04</totfact>
</mgrwt>
<rwgt>
<wgt id='1'> +6.6839527e+02 </wgt>
<wgt id='2'> +1.0674589e+03 </wgt>
<wgt id='3'> +5.0481800e+02 </wgt>
<wgt id='4'> +6.6839527e+02 </wgt>
<wgt id='5'> +4.9875436e+02 </wgt>
<wgt id='6'> +6.2220993e+02 </wgt>
<wgt id='7'> +1.0082227e+03 </wgt>
<wgt id='8'> +4.6181027e+02 </wgt>
<wgt id='9'> +6.2220992e+02 </wgt>
<wgt id='10'> +4.5611933e+02 </wgt>
<wgt id='11'> +5.6920105e+02 </wgt>
<wgt id='12'> +9.4238174e+02 </wgt>
<wgt id='13'> +4.2256544e+02 </wgt>
<wgt id='14'> +5.6920105e+02 </wgt>
<wgt id='15'> +4.1738814e+02 </wgt>
<wgt id='16'> +5.4228959e+02 </wgt>
<wgt id='17'> +8.3087927e+02 </wgt>
<wgt id='18'> +4.2378907e+02 </wgt>
<wgt id='19'> +5.4228958e+02 </wgt>
<wgt id='20'> +4.1911944e+02 </wgt>
<wgt id='21'> +7.8477156e+02 </wgt>
<wgt id='22'> +3.8768456e+02 </wgt>
<wgt id='23'> +5.0481800e+02 </wgt>
<wgt id='24'> +3.8329184e+02 </wgt>
<wgt id='25'> +4.6181028e+02 </wgt>
<wgt id='26'> +7.3352283e+02 </wgt>
<wgt id='27'> +3.5473896e+02 </wgt>
<wgt id='28'> +4.6181027e+02 </wgt>
<wgt id='29'> +3.5074477e+02 </wgt>
<wgt id='30'> +4.5524605e+02 </wgt>
<wgt id='31'> +6.6503522e+02 </wgt>
<wgt id='32'> +3.6107229e+02 </wgt>
<wgt id='33'> +4.5524605e+02 </wgt>
<wgt id='34'> +3.5729623e+02 </wgt>
<wgt id='35'> +4.2378907e+02 </wgt>
<wgt id='36'> +6.2813064e+02 </wgt>
<wgt id='37'> +3.3031091e+02 </wgt>
<wgt id='38'> +4.2378907e+02 </wgt>
<wgt id='39'> +3.2675347e+02 </wgt>
<wgt id='40'> +3.8768457e+02 </wgt>
<wgt id='41'> +5.8711119e+02 </wgt>
<wgt id='42'> +3.0224095e+02 </wgt>
<wgt id='43'> +3.8768456e+02 </wgt>
<wgt id='44'> +2.9900733e+02 </wgt>
<wgt id='45'> +5.0481800e+02 </wgt>
<wgt id='46'> +5.1842797e+02 </wgt>
<wgt id='47'> +5.2081394e+02 </wgt>
<wgt id='48'> +5.0319194e+02 </wgt>
<wgt id='49'> +4.6645625e+02 </wgt>
<wgt id='50'> +5.8159593e+02 </wgt>
<wgt id='51'> +4.7563100e+02 </wgt>
<wgt id='52'> +4.7144319e+02 </wgt>
<wgt id='53'> +5.0582022e+02 </wgt>
<wgt id='54'> +5.3626304e+02 </wgt>
<wgt id='55'> +5.7192823e+02 </wgt>
<wgt id='56'> +4.8682289e+02 </wgt>
<wgt id='57'> +5.3817706e+02 </wgt>
<wgt id='58'> +4.5936861e+02 </wgt>
<wgt id='59'> +5.5029386e+02 </wgt>
<wgt id='60'> +5.0960455e+02 </wgt>
<wgt id='61'> +4.4102811e+02 </wgt>
<wgt id='62'> +4.6524735e+02 </wgt>
<wgt id='63'> +5.3342296e+02 </wgt>
<wgt id='64'> +5.0752224e+02 </wgt>
<wgt id='65'> +4.5342851e+02 </wgt>
<wgt id='66'> +5.1134914e+02 </wgt>
<wgt id='67'> +5.0755416e+02 </wgt>
<wgt id='68'> +6.1136127e+02 </wgt>
<wgt id='69'> +5.4402384e+02 </wgt>
<wgt id='70'> +5.4610537e+02 </wgt>
<wgt id='71'> +4.6803709e+02 </wgt>
<wgt id='72'> +4.6510624e+02 </wgt>
<wgt id='73'> +4.5908508e+02 </wgt>
<wgt id='74'> +5.7955401e+02 </wgt>
<wgt id='75'> +5.4972085e+02 </wgt>
<wgt id='76'> +5.1985246e+02 </wgt>
<wgt id='77'> +4.7857255e+02 </wgt>
<wgt id='78'> +4.3511746e+02 </wgt>
<wgt id='79'> +5.4402188e+02 </wgt>
<wgt id='80'> +4.4710256e+02 </wgt>
<wgt id='81'> +5.2451612e+02 </wgt>
<wgt id='82'> +4.9494602e+02 </wgt>
<wgt id='83'> +4.9476334e+02 </wgt>
<wgt id='84'> +4.8739897e+02 </wgt>
<wgt id='85'> +4.5544467e+02 </wgt>
<wgt id='86'> +5.3002684e+02 </wgt>
<wgt id='87'> +4.9819491e+02 </wgt>
<wgt id='88'> +4.8952315e+02 </wgt>
<wgt id='89'> +4.2989811e+02 </wgt>
<wgt id='90'> +4.7075168e+02 </wgt>
<wgt id='91'> +4.3860883e+02 </wgt>
<wgt id='92'> +4.7638592e+02 </wgt>
<wgt id='93'> +5.1201593e+02 </wgt>
<wgt id='94'> +4.6410161e+02 </wgt>
<wgt id='95'> +5.3245255e+02 </wgt>
<wgt id='96'> +5.2479405e+02 </wgt>
<wgt id='97'> +4.5683436e+02 </wgt>
<wgt id='98'> +5.4442672e+02 </wgt>
<wgt id='99'> +4.2638690e+02 </wgt>
<wgt id='100'> +3.8760355e+02 </wgt>
<wgt id='101'> +5.8645454e+02 </wgt>
<wgt id='102'> +5.6780415e+02 </wgt>
<wgt id='103'> +4.8012712e+02 </wgt>
<wgt id='104'> +5.3839497e+02 </wgt>
<wgt id='105'> +5.1645323e+02 </wgt>
<wgt id='106'> +4.9500342e+02 </wgt>
<wgt id='107'> +4.9075908e+02 </wgt>
<wgt id='108'> +4.7559862e+02 </wgt>
<wgt id='109'> +5.0251002e+02 </wgt>
<wgt id='110'> +4.6537895e+02 </wgt>
<wgt id='111'> +4.9053708e+02 </wgt>
<wgt id='112'> +5.2766985e+02 </wgt>
<wgt id='113'> +5.3567116e+02 </wgt>
<wgt id='114'> +5.2496809e+02 </wgt>
<wgt id='115'> +4.6102620e+02 </wgt>
<wgt id='116'> +5.5306890e+02 </wgt>
<wgt id='117'> +4.9350098e+02 </wgt>
<wgt id='118'> +5.1895826e+02 </wgt>
<wgt id='119'> +5.5629985e+02 </wgt>
<wgt id='120'> +5.0424735e+02 </wgt>
<wgt id='121'> +4.9873781e+02 </wgt>
<wgt id='122'> +4.9430642e+02 </wgt>
<wgt id='123'> +4.7944275e+02 </wgt>
<wgt id='124'> +5.6626881e+02 </wgt>
<wgt id='125'> +6.3173005e+02 </wgt>
<wgt id='126'> +4.9328950e+02 </wgt>
<wgt id='127'> +4.8208999e+02 </wgt>
<wgt id='128'> +4.8719557e+02 </wgt>
<wgt id='129'> +5.1096308e+02 </wgt>
<wgt id='130'> +4.9035459e+02 </wgt>
<wgt id='131'> +4.6275947e+02 </wgt>
<wgt id='132'> +5.5428105e+02 </wgt>
<wgt id='133'> +5.5129280e+02 </wgt>
<wgt id='134'> +5.3369471e+02 </wgt>
<wgt id='135'> +4.8249064e+02 </wgt>
<wgt id='136'> +5.9854481e+02 </wgt>
<wgt id='137'> +5.3008223e+02 </wgt>
<wgt id='138'> +5.1636473e+02 </wgt>
<wgt id='139'> +5.2122400e+02 </wgt>
<wgt id='140'> +4.9090750e+02 </wgt>
<wgt id='141'> +5.7254693e+02 </wgt>
<wgt id='142'> +3.5498838e+02 </wgt>
<wgt id='143'> +5.1877931e+02 </wgt>
<wgt id='144'> +4.5992703e+02 </wgt>
<wgt id='145'> +4.6353579e+02 </wgt>
</rwgt>
</event>
<event>
 4      1 +5.0481800e+02 1.87408600e+02 7.54677100e-03 1.16082000e-01
       21 -1    0    0  503  502 +0.0000000000e+00 +0.0000000000e+00 +1.9291752784e+03 1.9291752784e+03 0.0000000000e+00 0.0000e+00 -1.0000e+00
       21 -1    0    0  501  503 -0.0000000000e+00 -0.0000000000e+00 -4.3136319458e+01 4.3136319458e+01 0.0000000000e+00 0.0000e+00 -1.0000e+00
        6  1    1    2  501    0 +5.3409717830e+01 -4.8377359115e+01 +1.9331412527e+02 2.6924397461e+02 1.7300000000e+02 0.0000e+00 -1.0000e+00
       -6  1    1    2    0  502 -5.3409717830e+01 +4.8377359115e+01 +1.6927248337e+03 1.7030676233e+03 1.7300000000e+02 0.0000e+00 -1.0000e+00
<mgrwt>
<rscale>  2 0.18740856E+03</rscale>
<asrwt>0</asrwt>
<pdfrwt beam="1">  1       21 0.29679613E+00 0.18740856E+03</pdfrwt>
<pdfrwt beam="2">  1       21 0.66363583E-02 0.18740856E+03</pdfrwt>
<totfact> 0.59423331E+03</totfact>
</mgrwt>
<rwgt>
<wgt id='1'> +7.1632288e+02 </wgt>
<wgt id='2'> +7.6261620e+02 </wgt>
<wgt id='3'> +5.0481801e+02 </wgt>
<wgt id='4'> +7.1632288e+02 </wgt>
<wgt id='5'> +4.1139770e+02 </wgt>
<wgt id='6'> +6.2027763e+02 </wgt>
<wgt id='7'> +6.6072853e+02 </wgt>
<wgt id='8'> +4.3382137e+02 </wgt>
<wgt id='9'> +6.2027764e+02 </wgt>
<wgt id='10'> +3.5534500e+02 </wgt>
<wgt id='11'> +5.3304298e+02 </wgt>
<wgt id='12'> +5.6775936e+02 </wgt>
<wgt id='13'> +3.7590460e+02 </wgt>
<wgt id='14'> +5.3304298e+02 </wgt>
<wgt id='15'> +3.0949478e+02 </wgt>
<wgt id='16'> +5.8298521e+02 </wgt>
<wgt id='17'> +6.1733859e+02 </wgt>
<wgt id='18'> +4.2467242e+02 </wgt>
<wgt id='19'> +5.8298521e+02 </wgt>
<wgt id='20'> +3.4921971e+02 </wgt>
<wgt id='21'> +5.3486042e+02 </wgt>
<wgt id='22'> +3.6494731e+02 </wgt>
<wgt id='23'> +5.0481801e+02 </wgt>
<wgt id='24'> +3.0163873e+02 </wgt>
<wgt id='25'> +4.3382137e+02 </wgt>
<wgt id='26'> +4.5960178e+02 </wgt>
<wgt id='27'> +3.1622548e+02 </wgt>
<wgt id='28'> +4.3382137e+02 </wgt>
<wgt id='29'> +2.6271824e+02 </wgt>
<wgt id='30'> +4.9042970e+02 </wgt>
<wgt id='31'> +5.1728606e+02 </wgt>
<wgt id='32'> +3.6226431e+02 </wgt>
<wgt id='33'> +4.9042970e+02 </wgt>
<wgt id='34'> +3.0014050e+02 </wgt>
<wgt id='35'> +4.2467242e+02 </wgt>
<wgt id='36'> +4.4817519e+02 </wgt>
<wgt id='37'> +3.1131615e+02 </wgt>
<wgt id='38'> +4.2467242e+02 </wgt>
<wgt id='39'> +2.5924653e+02 </wgt>
<wgt id='40'> +3.6494731e+02 </wgt>
<wgt id='41'> +3.8511377e+02 </wgt>
<wgt id='42'> +2.6975428e+02 </wgt>
<wgt id='43'> +3.6494731e+02 </wgt>
<wgt id='44'> +2.2579591e+02 </wgt>
<wgt id='45'> +5.0481800e+02 </wgt>
<wgt id='46'> +5.1103610e+02 </wgt>
<wgt id='47'> +5.8705936e+02 </wgt>
<wgt id='48'> +5.0585716e+02 </wgt>
<wgt id='49'> +4.4042390e+02 </wgt>
<wgt id='50'> +6.0390348e+02 </wgt>
<wgt id='51'> +4.7475579e+02 </wgt>
<wgt id='52'> +4.1347352e+02 </wgt>
<wgt id='53'> +5.5501286e+02 </wgt>
<wgt id='54'> +5.3965129e+02 </wgt>
<wgt id='55'> +6.2990834e+02 </wgt>
<wgt id='56'> +4.9238807e+02 </wgt>
<wgt id='57'> +5.5033073e+02 </wgt>
<wgt id='58'> +4.2256511e+02 </wgt>
<wgt id='59'> +5.4670619e+02 </wgt>
<wgt id='60'> +4.8231024e+02 </wgt>
<wgt id='61'> +3.8666372e+02 </wgt>
<wgt id='62'> +4.3137128e+02 </wgt>
<wgt id='63'> +5.4020440e+02 </wgt>
<wgt id='64'> +5.0794030e+02 </wgt>
<wgt id='65'> +3.9018810e+02 </wgt>
<wgt id='66'> +5.2441815e+02 </wgt>
<wgt id='67'> +4.9875702e+02 </wgt>
<wgt id='68'> +7.3540503e+02 </wgt>
<wgt id='69'> +6.0554301e+02 </wgt>
<wgt id='70'> +6.5383399e+02 </wgt>
<wgt id='71'> +4.2954995e+02 </wgt>
<wgt id='72'> +4.1245194e+02 </wgt>
<wgt id='73'> +4.3560770e+02 </wgt>
<wgt id='74'> +6.6501567e+02 </wgt>
<wgt id='75'> +6.3536064e+02 </wgt>
<wgt id='76'> +5.1653233e+02 </wgt>
<wgt id='77'> +4.3458129e+02 </wgt>
<wgt id='78'> +4.0449507e+02 </wgt>
<wgt id='79'> +5.8278154e+02 </wgt>
<wgt id='80'> +3.8977989e+02 </wgt>
<wgt id='81'> +5.6085392e+02 </wgt>
<wgt id='82'> +5.0075469e+02 </wgt>
<wgt id='83'> +5.0452032e+02 </wgt>
<wgt id='84'> +4.4495818e+02 </wgt>
<wgt id='85'> +4.1581778e+02 </wgt>
<wgt id='86'> +5.6504197e+02 </wgt>
<wgt id='87'> +4.7359560e+02 </wgt>
<wgt id='88'> +5.3084987e+02 </wgt>
<wgt id='89'> +3.2167785e+02 </wgt>
<wgt id='90'> +4.0816743e+02 </wgt>
<wgt id='91'> +3.7515280e+02 </wgt>
<wgt id='92'> +4.7573173e+02 </wgt>
<wgt id='93'> +5.3018051e+02 </wgt>
<wgt id='94'> +4.3852640e+02 </wgt>
<wgt id='95'> +5.2457069e+02 </wgt>
<wgt id='96'> +5.1411120e+02 </wgt>
<wgt id='97'> +4.2108983e+02 </wgt>
<wgt id='98'> +6.1907191e+02 </wgt>
<wgt id='99'> +3.7466952e+02 </wgt>
<wgt id='100'> +3.1873866e+02 </wgt>
<wgt id='101'> +6.1341931e+02 </wgt>
<wgt id='102'> +5.9944543e+02 </wgt>
<wgt id='103'> +4.2496410e+02 </wgt>
<wgt id='104'> +5.7356741e+02 </wgt>
<wgt id='105'> +5.1576213e+02 </wgt>
<wgt id='106'> +5.1840528e+02 </wgt>
<wgt id='107'> +5.2529359e+02 </wgt>
<wgt id='108'> +4.6803372e+02 </wgt>
<wgt id='109'> +5.0689420e+02 </wgt>
<wgt id='110'> +4.0442431e+02 </wgt>
<wgt id='111'> +4.7318128e+02 </wgt>
<wgt id='112'> +5.2768452e+02 </wgt>
<wgt id='113'> +6.1915406e+02 </wgt>
<wgt id='114'> +4.8997854e+02 </wgt>
<wgt id='115'> +4.8194206e+02 </wgt>
<wgt id='116'> +5.8383905e+02 </wgt>
<wgt id='117'> +5.1758018e+02 </wgt>
<wgt id='118'> +4.9921195e+02 </wgt>
<wgt id='119'> +5.6055877e+02 </wgt>
<wgt id='120'> +4.9587410e+02 </wgt>
<wgt id='121'> +4.5883318e+02 </wgt>
<wgt id='122'> +4.7485271e+02 </wgt>
<wgt id='123'> +4.4581039e+02 </wgt>
<wgt id='124'> +5.6683694e+02 </wgt>
<wgt id='125'> +7.3461188e+02 </wgt>
<wgt id='126'> +4.7557960e+02 </wgt>
<wgt id='127'> +4.5063810e+02 </wgt>
<wgt id='128'> +5.0754307e+02 </wgt>
<wgt id='129'> +4.7387261e+02 </wgt>
<wgt id='130'> +4.9889658e+02 </wgt>
<wgt id='131'> +4.2376961e+02 </wgt>
<wgt id='132'> +5.3622259e+02 </wgt>
<wgt id='133'> +5.6679822e+02 </wgt>
<wgt id='134'> +5.6881143e+02 </wgt>
<wgt id='135'> +4.6756968e+02 </wgt>
<wgt id='136'> +6.2705973e+02 </wgt>
<wgt id='137'> +6.0678706e+02 </wgt>
<wgt id='138'> +5.6301040e+02 </wgt>
<wgt id='139'> +5.2741679e+02 </wgt>
<wgt id='140'> +4.8373126e+02 </wgt>
<wgt id='141'> +6.7104358e+02 </wgt>
<wgt id='142'> +2.2824109e+02 </wgt>
<wgt id='143'> +5.0938986e+02 </wgt>
<wgt id='144'> +4.2781415e+02 </wgt>
<wgt id='145'> +4.5076479e+02 </wgt>
</rwgt>
</event>
<event>
 4      1 +5.0481800e+02 2.12273000e+02 7.54677100e-03 1.13977900e-01
       21 -1    0    0  501  502 +0.0000000000e+00 +0.0000000000e+00 +4.2980476650e+02 4.2980476650e+02 0.0000000000e+00 0.0000e+00 1.0000e+00
       21 -1    0    0  502  503 -0.0000000000e+00 -0.0000000000e+00 -1.1476170628e+02 1.1476170628e+02 0.0000000000e+00 0.0000e+00 -1.0000e+00
        6  1    1    2  501    0 -1.0888029467e+02 +5.7235518078e+01 +2.3759005947e+02 3.1860455028e+02 1.7300000000e+02 0.0000e+00 1.0000e+00
       -6  1    1    2    0  503 +1.0888029467e+02 -5.7235518078e+01 +7.7453000744e+01 2.2596192250e+02 1.7300000000e+02 0.0000e+00 -1.0000e+00
<mgrwt>
<rscale>  2 0.21227299E+03</rscale>
<asrwt>0</asrwt>
<pdfrwt beam="1">  1       21 0.66123809E-01 0.21227299E+03</pdfrwt>
<pdfrwt beam="2">  1       21 0.17655647E-01 0.21227299E+03</pdfrwt>
<totfact> 0.60534210E+04</totfact>
</mgrwt>
<rwgt>
<wgt id='1'> +6.4885785e+02 </wgt>
<wgt id='2'> +5.4749189e+02 </wgt>
<wgt id='3'> +5.0481800e+02 </wgt>
<wgt id='4'> +6.4885784e+02 </wgt>
<wgt id='5'> +4.9688362e+02 </wgt>
<wgt id='6'> +6.1624310e+02 </wgt>
<wgt id='7'> +5.1319610e+02 </wgt>
<wgt id='8'> +4.7234798e+02 </wgt>
<wgt id='9'> +6.1624310e+02 </wgt>
<wgt id='10'> +4.6494465e+02 </wgt>
<wgt id='11'> +5.7660619e+02 </wgt>
<wgt id='12'> +4.8015533e+02 </wgt>
<wgt id='13'> +4.4196081e+02 </wgt>
<wgt id='14'> +5.7660619e+02 </wgt>
<wgt id='15'> +4.3504291e+02 </wgt>
<wgt id='16'> +5.3153556e+02 </wgt>
<wgt id='17'> +4.5900139e+02 </wgt>
<wgt id='18'> +4.2594530e+02 </wgt>
<wgt id='19'> +5.3153556e+02 </wgt>
<wgt id='20'> +4.1960648e+02 </wgt>
<wgt id='21'> +4.3024879e+02 </wgt>
<wgt id='22'> +3.9854839e+02 </wgt>
<wgt id='23'> +5.0481800e+02 </wgt>
<wgt id='24'> +3.9263477e+02 </wgt>
<wgt id='25'> +4.7234798e+02 </wgt>
<wgt id='26'> +4.0254836e+02 </wgt>
<wgt id='27'> +3.7290891e+02 </wgt>
<wgt id='28'> +4.7234798e+02 </wgt>
<wgt id='29'> +3.6738346e+02 </wgt>
<wgt id='30'> +4.4848851e+02 </wgt>
<wgt id='31'> +3.9079655e+02 </wgt>
<wgt id='32'> +3.6416675e+02 </wgt>
<wgt id='33'> +4.4848851e+02 </wgt>
<wgt id='34'> +3.5903203e+02 </wgt>
<wgt id='35'> +4.2594530e+02 </wgt>
<wgt id='36'> +3.6631641e+02 </wgt>
<wgt id='37'> +3.4074345e+02 </wgt>
<wgt id='38'> +4.2594530e+02 </wgt>
<wgt id='39'> +3.3595397e+02 </wgt>
<wgt id='40'> +3.9854839e+02 </wgt>
<wgt id='41'> +3.4273210e+02 </wgt>
<wgt id='42'> +3.1882269e+02 </wgt>
<wgt id='43'> +3.9854839e+02 </wgt>
<wgt id='44'> +3.1434794e+02 </wgt>
<wgt id='45'> +5.0481800e+02 </wgt>
<wgt id='46'> +5.0842671e+02 </wgt>
<wgt id='47'> +5.2198627e+02 </wgt>
<wgt id='48'> +5.0738248e+02 </wgt>
<wgt id='49'> +5.0195617e+02 </wgt>
<wgt id='50'> +5.9188483e+02 </wgt>
<wgt id='51'> +4.9465986e+02 </wgt>
<wgt id='52'> +5.0306853e+02 </wgt>
<wgt id='53'> +5.0646837e+02 </wgt>
<wgt id='54'> +5.0875860e+02 </wgt>
<wgt id='55'> +4.5947229e+02 </wgt>
<wgt id='56'> +4.6707553e+02 </wgt>
<wgt id='57'> +4.9592233e+02 </wgt>
<wgt id='58'> +5.0420696e+02 </wgt>
<wgt id='59'> +5.0567593e+02 </wgt>
<wgt id='60'> +4.9113127e+02 </wgt>
<wgt id='61'> +4.7629576e+02 </wgt>
<wgt id='62'> +4.9773733e+02 </wgt>
<wgt id='63'> +5.0553077e+02 </wgt>
<wgt id='64'> +4.9780366e+02 </wgt>
<wgt id='65'> +5.8367422e+02 </wgt>
<wgt id='66'> +4.9403008e+02 </wgt>
<wgt id='67'> +5.0892354e+02 </wgt>
<wgt id='68'> +5.4532207e+02 </wgt>
<wgt id='69'> +4.9612261e+02 </wgt>
<wgt id='70'> +4.9699462e+02 </wgt>
<wgt id='71'> +5.1329575e+02 </wgt>
<wgt id='72'> +4.8908545e+02 </wgt>
<wgt id='73'> +4.9579921e+02 </wgt>
<wgt id='74'> +5.2388884e+02 </wgt>
<wgt id='75'> +5.1588956e+02 </wgt>
<wgt id='76'> +4.9267771e+02 </wgt>
<wgt id='77'> +4.8968116e+02 </wgt>
<wgt id='78'> +4.9826129e+02 </wgt>
<wgt id='79'> +4.8909494e+02 </wgt>
<wgt id='80'> +4.9782447e+02 </wgt>
<wgt id='81'> +4.9546852e+02 </wgt>
<wgt id='82'> +5.1201077e+02 </wgt>
<wgt id='83'> +5.1393251e+02 </wgt>
<wgt id='84'> +5.5022931e+02 </wgt>
<wgt id='85'> +5.2588416e+02 </wgt>
<wgt id='86'> +5.0334290e+02 </wgt>
<wgt id='87'> +5.0605831e+02 </wgt>
<wgt id='88'> +5.1146929e+02 </wgt>
<wgt id='89'> +5.1562625e+02 </wgt>
<wgt id='90'> +5.1223459e+02 </wgt>
<wgt id='91'> +5.3100434e+02 </wgt>
<wgt id='92'> +4.6394717e+02 </wgt>
<wgt id='93'> +4.9833771e+02 </wgt>
<wgt id='94'> +4.9904313e+02 </wgt>
<wgt id='95'> +4.8833136e+02 </wgt>
<wgt id='96'> +5.4379368e+02 </wgt>
<wgt id='97'> +5.0858225e+02 </wgt>
<wgt id='98'> +4.8544346e+02 </wgt>
<wgt id='99'> +4.8729251e+02 </wgt>
<wgt id='100'> +4.9218847e+02 </wgt>
<wgt id='101'> +5.3821244e+02 </wgt>
<wgt id='102'> +4.9923295e+02 </wgt>
<wgt id='103'> +5.4665692e+02 </wgt>
<wgt id='104'> +5.0543548e+02 </wgt>
<wgt id='105'> +5.2316775e+02 </wgt>
<wgt id='106'> +4.6344584e+02 </wgt>
<wgt id='107'> +4.9305572e+02 </wgt>
<wgt id='108'> +4.5054031e+02 </wgt>
<wgt id='109'> +4.7451624e+02 </wgt>
<wgt id='110'> +5.0427117e+02 </wgt>
<wgt id='111'> +4.9141702e+02 </wgt>
<wgt id='112'> +4.8010574e+02 </wgt>
<wgt id='113'> +4.6507925e+02 </wgt>
<wgt id='114'> +4.9958373e+02 </wgt>
<wgt id='115'> +4.9629007e+02 </wgt>
<wgt id='116'> +5.0978263e+02 </wgt>
<wgt id='117'> +5.0728413e+02 </wgt>
<wgt id='118'> +5.2116343e+02 </wgt>
<wgt id='119'> +4.8735979e+02 </wgt>
<wgt id='120'> +4.9789619e+02 </wgt>
<wgt id='121'> +4.9198303e+02 </wgt>
<wgt id='122'> +4.9875880e+02 </wgt>
<wgt id='123'> +5.1023047e+02 </wgt>
<wgt id='124'> +5.4445156e+02 </wgt>
<wgt id='125'> +5.4646523e+02 </wgt>
<wgt id='126'> +5.2292070e+02 </wgt>
<wgt id='127'> +5.1926409e+02 </wgt>
<wgt id='128'> +4.6565484e+02 </wgt>
<wgt id='129'> +5.6905784e+02 </wgt>
<wgt id='130'> +5.0567227e+02 </wgt>
<wgt id='131'> +5.3588829e+02 </wgt>
<wgt id='132'> +5.0907293e+02 </wgt>
<wgt id='133'> +5.0666051e+02 </wgt>
<wgt id='134'> +4.8025427e+02 </wgt>
<wgt id='135'> +5.1591592e+02 </wgt>
<wgt id='136'> +4.9513345e+02 </wgt>
<wgt id='137'> +4.7830187e+02 </wgt>
<wgt id='138'> +4.6419699e+02 </wgt>
<wgt id='139'> +5.1620873e+02 </wgt>
<wgt id='140'> +5.3085063e+02 </wgt>
<wgt id='141'> +5.0639873e+02 </wgt>
<wgt id='142'> +4.9792090e+02 </wgt>
<wgt id='143'> +5.0530988e+02 </wgt>
<wgt id='144'> +5.0172554e+02 </wgt>
<wgt id='145'> +5.0513506e+02 </wgt>
</rwgt>
</event>
<event>
 4      1 +5.0481800e+02 2.29964100e+02 7.54677100e-03 1.12666500e-01
       21 -1    0    0  501  502 +0.0000000000e+00 +0.0000000000e+00 +6.0792204597e+01 6.0792204597e+01 0.0000000000e+00 0.0000e+00 1.0000e+00
       21 -1    0    0  502  503 -0.0000000000e+00 -0.0000000000e+00 -8.7323613430e+02 8.7323613430e+02 0.0000000000e+00 0.0000e+00 1.0000e+00
        6  1    1    2  501    0 -9.4726658866e+01 +1.1824279081e+02 -3.7738154513e+02 4.4192796708e+02 1.7300000000e+02 0.0000e+00 -1.0000e+00
       -6  1    1    2    0  503 +9.4726658866e+01 -1.1824279081e+02 -4.3506238457e+02 4.9210037182e+02 1.7300000000e+02 0.0000e+00 -1.0000e+00
<mgrwt>
<rscale>  2 0.22996412E+03</rscale>
<asrwt>0</asrwt>
<pdfrwt beam="1">  1       21 0.93526473E-02 0.22996412E+03</pdfrwt>
<pdfrwt beam="2">  1       21 0.13434401E+00 0.22996412E+03</pdfrwt>
<totfact> 0.35566312E+04</totfact>
</mgrwt>
<rwgt>
<wgt id='1'> +6.5842848e+02 </wgt>
<wgt id='2'> +5.7447675e+02 </wgt>
<wgt id='3'> +5.0481800e+02 </wgt>
<wgt id='4'> +6.5842848e+02 </wgt>
<wgt id='5'> +5.0445963e+02 </wgt>
<wgt id='6'> +6.1351860e+02 </wgt>
<wgt id='7'> +5.3031056e+02 </wgt>
<wgt id='8'> +4.6516846e+02 </wgt>
<wgt id='9'> +6.1351860e+02 </wgt>
<wgt id='10'> +4.6483954e+02 </wgt>
<wgt id='11'> +5.6533148e+02 </wgt>
<wgt id='12'> +4.8885054e+02 </wgt>
<wgt id='13'> +4.2905604e+02 </wgt>
<wgt id='14'> +5.6533148e+02 </wgt>
<wgt id='15'> +4.2875428e+02 </wgt>
<wgt id='16'> +5.4177094e+02 </wgt>
<wgt id='17'> +4.8100240e+02 </wgt>
<wgt id='18'> +4.2659111e+02 </wgt>
<wgt id='19'> +5.4177094e+02 </wgt>
<wgt id='20'> +4.2630445e+02 </wgt>
<wgt id='21'> +4.4402259e+02 </wgt>
<wgt id='22'> +3.9308569e+02 </wgt>
<wgt id='23'> +5.0481800e+02 </wgt>
<wgt id='24'> +3.9282264e+02 </wgt>
<wgt id='25'> +4.6516847e+02 </wgt>
<wgt id='26'> +4.0930861e+02 </wgt>
<wgt id='27'> +3.6256927e+02 </wgt>
<wgt id='28'> +4.6516846e+02 </wgt>
<wgt id='29'> +3.6232802e+02 </wgt>
<wgt id='30'> +4.5781780e+02 </wgt>
<wgt id='31'> +4.0926792e+02 </wgt>
<wgt id='32'> +3.6522981e+02 </wgt>
<wgt id='33'> +4.5781780e+02 </wgt>
<wgt id='34'> +3.6499650e+02 </wgt>
<wgt id='35'> +4.2659111e+02 </wgt>
<wgt id='36'> +3.7780311e+02 </wgt>
<wgt id='37'> +3.3654385e+02 </wgt>
<wgt id='38'> +4.2659111e+02 </wgt>
<wgt id='39'> +3.3632980e+02 </wgt>
<wgt id='40'> +3.9308569e+02 </wgt>
<wgt id='41'> +3.4826622e+02 </wgt>
<wgt id='42'> +3.1041694e+02 </wgt>
<wgt id='43'> +3.9308569e+02 </wgt>
<wgt id='44'> +3.1022069e+02 </wgt>
<wgt id='45'> +5.0481800e+02 </wgt>
<wgt id='46'> +5.1805099e+02 </wgt>
<wgt id='47'> +5.1781533e+02 </wgt>
<wgt id='48'> +5.0634334e+02 </wgt>
<wgt id='49'> +4.8600765e+02 </wgt>
<wgt id='50'> +5.9579684e+02 </wgt>
<wgt id='51'> +4.8649870e+02 </wgt>
<wgt id='52'> +4.9612028e+02 </wgt>
<wgt id='53'> +4.9816464e+02 </wgt>
<wgt id='54'> +5.2177843e+02 </wgt>
<wgt id='55'> +5.1003491e+02 </wgt>
<wgt id='56'> +4.6760503e+02 </wgt>
<wgt id='57'> +5.2011889e+02 </wgt>
<wgt id='58'> +4.8150036e+02 </wgt>
<wgt id='59'> +5.3628271e+02 </wgt>
<wgt id='60'> +5.0808384e+02 </wgt>
<wgt id='61'> +4.4234200e+02 </wgt>
<wgt id='62'> +4.8597727e+02 </wgt>
<wgt id='63'> +5.1496128e+02 </wgt>
<wgt id='64'> +4.9951170e+02 </wgt>
<wgt id='65'> +5.2368759e+02 </wgt>
<wgt id='66'> +5.0079560e+02 </wgt>
<wgt id='67'> +5.0695083e+02 </wgt>
<wgt id='68'> +5.7144530e+02 </wgt>
<wgt id='69'> +5.1588578e+02 </wgt>
<wgt id='70'> +5.1012937e+02 </wgt>
<wgt id='71'> +4.9752631e+02 </wgt>
<wgt id='72'> +4.8199407e+02 </wgt>
<wgt id='73'> +4.7739056e+02 </wgt>
<wgt id='74'> +5.4653995e+02 </wgt>
<wgt id='75'> +5.2305100e+02 </wgt>
<wgt id='76'> +5.0767288e+02 </wgt>
<wgt id='77'> +4.9226770e+02 </wgt>
<wgt id='78'> +4.6548807e+02 </wgt>
<wgt id='79'> +5.1292231e+02 </wgt>
<wgt id='80'> +4.7744484e+02 </wgt>
<wgt id='81'> +5.0306441e+02 </wgt>
<wgt id='82'> +4.8915780e+02 </wgt>
<wgt id='83'> +5.0427879e+02 </wgt>
<wgt id='84'> +5.2324919e+02 </wgt>
<wgt id='85'> +4.9293260e+02 </wgt>
<wgt id='86'> +5.1337932e+02 </wgt>
<wgt id='87'> +5.0604513e+02 </wgt>
<wgt id='88'> +4.9970221e+02 </wgt>
<wgt id='89'> +4.8694422e+02 </wgt>
<wgt id='90'> +5.0319463e+02 </wgt>
<wgt id='91'> +4.9025666e+02 </wgt>
<wgt id='92'> +4.6748809e+02 </wgt>
<wgt id='93'> +5.0510126e+02 </wgt>
<wgt id='94'> +4.8072756e+02 </wgt>
<wgt id='95'> +5.1396378e+02 </wgt>
<wgt id='96'> +5.3190960e+02 </wgt>
<wgt id='97'> +4.8489661e+02 </wgt>
<wgt id='98'> +5.0959537e+02 </wgt>
<wgt id='99'> +4.6110864e+02 </wgt>
<wgt id='100'> +4.4148116e+02 </wgt>
<wgt id='101'> +5.6905303e+02 </wgt>
<wgt id='102'> +5.3801057e+02 </wgt>
<wgt id='103'> +5.2254873e+02 </wgt>
<wgt id='104'> +5.1861155e+02 </wgt>
<wgt id='105'> +5.1997538e+02 </wgt>
<wgt id='106'> +4.7188992e+02 </wgt>
<wgt id='107'> +4.8069065e+02 </wgt>
<wgt id='108'> +4.5622590e+02 </wgt>
<wgt id='109'> +4.8625718e+02 </wgt>
<wgt id='110'> +4.8962272e+02 </wgt>
<wgt id='111'> +4.9297736e+02 </wgt>
<wgt id='112'> +4.9502558e+02 </wgt>
<wgt id='113'> +4.8792428e+02 </wgt>
<wgt id='114'> +5.0480109e+02 </wgt>
<wgt id='115'> +4.7082349e+02 </wgt>
<wgt id='116'> +5.3319281e+02 </wgt>
<wgt id='117'> +4.9508974e+02 </wgt>
<wgt id='118'> +5.2769839e+02 </wgt>
<wgt id='119'> +5.1344990e+02 </wgt>
<wgt id='120'> +4.9871352e+02 </wgt>
<wgt id='121'> +5.0063437e+02 </wgt>
<wgt id='122'> +4.9887044e+02 </wgt>
<wgt id='123'> +4.9978241e+02 </wgt>
<wgt id='124'> +5.6325209e+02 </wgt>
<wgt id='125'> +5.8432226e+02 </wgt>
<wgt id='126'> +5.1018349e+02 </wgt>
<wgt id='127'> +5.0628270e+02 </wgt>
<wgt id='128'> +4.6662523e+02 </wgt>
<wgt id='129'> +5.4714240e+02 </wgt>
<wgt id='130'> +4.9099935e+02 </wgt>
<wgt id='131'> +5.0367035e+02 </wgt>
<wgt id='132'> +5.4308054e+02 </wgt>
<wgt id='133'> +5.3061725e+02 </wgt>
<wgt id='134'> +5.0655724e+02 </wgt>
<wgt id='135'> +5.0121072e+02 </wgt>
<wgt id='136'> +5.5165717e+02 </wgt>
<wgt id='137'> +4.9698734e+02 </wgt>
<wgt id='138'> +4.8910829e+02 </wgt>
<wgt id='139'> +5.2014069e+02 </wgt>
<wgt id='140'> +5.0731713e+02 </wgt>
<wgt id='141'> +5.3051580e+02 </wgt>
<wgt id='142'> +4.3713920e+02 </wgt>
<wgt id='143'> +5.1875270e+02 </wgt>
<wgt id='144'> +4.8293558e+02 </wgt>
<wgt id='145'> +4.8838288e+02 </wgt>
</rwgt>
</event>
<event>
 4      1 +5.0481800e+02 1.92064100e+02 7.54677100e-03 1.15661300e-01
       21 -1    0    0  501  502 +0.0000000000e+00 +0.0000000000e+00 +8.7702255371e+01 8.7702255371e+01 0.0000000000e+00 0.0000e+00 1.0000e+00
       21 -1    0    0  502  503 -0.0000000000e+00 -0.0000000000e+00 -5.7727644122e+02 5.7727644122e+02 0.0000000000e+00 0.0000e+00 1.0000e+00
        6  1    1    2  501    0 -1.0030031125e+01 -8.2819279014e+01 -7.1577945574e+01 2.0496837998e+02 1.7300000000e+02 0.0000e+00 1.0000e+00
       -6  1    1    2    0  503 +1.0030031125e+01 +8.2819279014e+01 -4.1799624027e+02 4.6001031660e+02 1.7300000000e+02 0.0000e+00 1.0000e+00
<mgrwt>
<rscale>  2 0.19206414E+03</rscale>
<asrwt>0</asrwt>
<pdfrwt beam="1">  1       21 0.13492654E-01 0.19206414E+03</pdfrwt>
<pdfrwt beam="2">  1       21 0.88811764E-01 0.19206414E+03</pdfrwt>
<totfact> 0.51512872E+04</totfact>
</mgrwt>
<rwgt>
<wgt id='1'> +6.5360594e+02 </wgt>
<wgt id='2'> +5.9522412e+02 </wgt>
<wgt id='3'> +5.0481800e+02 </wgt>
<wgt id='4'> +6.5360594e+02 </wgt>
<wgt id='5'> +4.7696288e+02 </wgt>
<wgt id='6'> +6.1956340e+02 </wgt>
<wgt id='7'> +5.6001839e+02 </wgt>
<wgt id='8'> +4.7031274e+02 </wgt>
<wgt id='9'> +6.1956340e+02 </wgt>
<wgt id='10'> +4.4429003e+02 </wgt>
<wgt id='11'> +5.7721507e+02 </wgt>
<wgt id='12'> +5.2165879e+02 </wgt>
<wgt id='13'> +4.3814841e+02 </wgt>
<wgt id='14'> +5.7721507e+02 </wgt>
<wgt id='15'> +4.1395759e+02 </wgt>
<wgt id='16'> +5.3255574e+02 </wgt>
<wgt id='17'> +4.9144279e+02 </wgt>
<wgt id='18'> +4.2497096e+02 </wgt>
<wgt id='19'> +5.3255574e+02 </wgt>
<wgt id='20'> +4.0288266e+02 </wgt>
<wgt id='21'> +4.6237542e+02 </wgt>
<wgt id='22'> +3.9592339e+02 </wgt>
<wgt id='23'> +5.0481800e+02 </wgt>
<wgt id='24'> +3.7528444e+02 </wgt>
<wgt id='25'> +4.7031274e+02 </wgt>
<wgt id='26'> +4.3070407e+02 </wgt>
<wgt id='27'> +3.6884650e+02 </wgt>
<wgt id='28'> +4.7031274e+02 </wgt>
<wgt id='29'> +3.4966313e+02 </wgt>
<wgt id='30'> +4.4832143e+02 </wgt>
<wgt id='31'> +4.1584253e+02 </wgt>
<wgt id='32'> +3.6268043e+02 </wgt>
<wgt id='33'> +4.4832142e+02 </wgt>
<wgt id='34'> +3.4480086e+02 </wgt>
<wgt id='35'> +4.2497096e+02 </wgt>
<wgt id='36'> +3.9124669e+02 </wgt>
<wgt id='37'> +3.3789054e+02 </wgt>
<wgt id='38'> +4.2497096e+02 </wgt>
<wgt id='39'> +3.2118136e+02 </wgt>
<wgt id='40'> +3.9592340e+02 </wgt>
<wgt id='41'> +3.6444745e+02 </wgt>
<wgt id='42'> +3.1478247e+02 </wgt>
<wgt id='43'> +3.9592339e+02 </wgt>
<wgt id='44'> +2.9925376e+02 </wgt>
<wgt id='45'> +5.0481800e+02 </wgt>
<wgt id='46'> +5.1255427e+02 </wgt>
<wgt id='47'> +5.2046276e+02 </wgt>
<wgt id='48'> +5.0777538e+02 </wgt>
<wgt id='49'> +4.9850375e+02 </wgt>
<wgt id='50'> +5.9555386e+02 </wgt>
<wgt id='51'> +4.9309067e+02 </wgt>
<wgt id='52'> +5.0360391e+02 </wgt>
<wgt id='53'> +5.0157028e+02 </wgt>
<wgt id='54'> +5.1151163e+02 </wgt>
<wgt id='55'> +4.7221553e+02 </wgt>
<wgt id='56'> +4.6400150e+02 </wgt>
<wgt id='57'> +5.0320274e+02 </wgt>
<wgt id='58'> +4.9833836e+02 </wgt>
<wgt id='59'> +5.1691992e+02 </wgt>
<wgt id='60'> +4.9917288e+02 </wgt>
<wgt id='61'> +4.5472579e+02 </wgt>
<wgt id='62'> +4.9582221e+02 </wgt>
<wgt id='63'> +5.0664713e+02 </wgt>
<wgt id='64'> +4.9657842e+02 </wgt>
<wgt id='65'> +5.6758627e+02 </wgt>
<wgt id='66'> +4.9531572e+02 </wgt>
<wgt id='67'> +5.0816859e+02 </wgt>
<wgt id='68'> +5.5220352e+02 </wgt>
<wgt id='69'> +5.0064052e+02 </wgt>
<wgt id='70'> +4.9839487e+02 </wgt>
<wgt id='71'> +5.1074506e+02 </wgt>
<wgt id='72'> +4.8791343e+02 </wgt>
<wgt id='73'> +4.9156282e+02 </wgt>
<wgt id='74'> +5.2993213e+02 </wgt>
<wgt id='75'> +5.1618562e+02 </wgt>
<wgt id='76'> +4.9680586e+02 </wgt>
<wgt id='77'> +4.9283601e+02 </wgt>
<wgt id='78'> +4.8845801e+02 </wgt>
<wgt id='79'> +4.9558187e+02 </wgt>
<wgt id='80'> +4.9319763e+02 </wgt>
<wgt id='81'> +4.9593535e+02 </wgt>
<wgt id='82'> +5.0278747e+02 </wgt>
<wgt id='83'> +5.1132697e+02 </wgt>
<wgt id='84'> +5.4372017e+02 </wgt>
<wgt id='85'> +5.1764640e+02 </wgt>
<wgt id='86'> +5.0570001e+02 </wgt>
<wgt id='87'> +5.0725951e+02 </wgt>
<wgt id='88'> +5.0801627e+02 </wgt>
<wgt id='89'> +5.1192458e+02 </wgt>
<wgt id='90'> +5.1330003e+02 </wgt>
<wgt id='91'> +5.2125117e+02 </wgt>
<wgt id='92'> +4.6381123e+02 </wgt>
<wgt id='93'> +5.0078471e+02 </wgt>
<wgt id='94'> +4.9411521e+02 </wgt>
<wgt id='95'> +4.9557375e+02 </wgt>
<wgt id='96'> +5.4049643e+02 </wgt>
<wgt id='97'> +5.0245000e+02 </wgt>
<wgt id='98'> +4.9118991e+02 </wgt>
<wgt id='99'> +4.8166083e+02 </wgt>
<wgt id='100'> +4.7870774e+02 </wgt>
<wgt id='101'> +5.4928184e+02 </wgt>
<wgt id='102'> +5.1137115e+02 </wgt>
<wgt id='103'> +5.4329668e+02 </wgt>
<wgt id='104'> +5.0779504e+02 </wgt>
<wgt id='105'> +5.2218189e+02 </wgt>
<wgt id='106'> +4.6331748e+02 </wgt>
<wgt id='107'> +4.8667199e+02 </wgt>
<wgt id='108'> +4.4893318e+02 </wgt>
<wgt id='109'> +4.7625554e+02 </wgt>
<wgt id='110'> +5.0169090e+02 </wgt>
<wgt id='111'> +4.9161962e+02 </wgt>
<wgt id='112'> +4.7997041e+02 </wgt>
<wgt id='113'> +4.6846484e+02 </wgt>
<wgt id='114'> +4.9746953e+02 </wgt>
<wgt id='115'> +4.8526831e+02 </wgt>
<wgt id='116'> +5.1699685e+02 </wgt>
<wgt id='117'> +5.0212034e+02 </wgt>
<wgt id='118'> +5.2537849e+02 </wgt>
<wgt id='119'> +4.9211629e+02 </wgt>
<wgt id='120'> +4.9473670e+02 </wgt>
<wgt id='121'> +4.9488210e+02 </wgt>
<wgt id='122'> +4.9933116e+02 </wgt>
<wgt id='123'> +5.0809500e+02 </wgt>
<wgt id='124'> +5.5213923e+02 </wgt>
<wgt id='125'> +5.5670910e+02 </wgt>
<wgt id='126'> +5.2030833e+02 </wgt>
<wgt id='127'> +5.1760798e+02 </wgt>
<wgt id='128'> +4.6198370e+02 </wgt>
<wgt id='129'> +5.6554401e+02 </wgt>
<wgt id='130'> +5.0123231e+02 </wgt>
<wgt id='131'> +5.2861393e+02 </wgt>
<wgt id='132'> +5.2225166e+02 </wgt>
<wgt id='133'> +5.1407296e+02 </wgt>
<wgt id='134'> +4.8768242e+02 </wgt>
<wgt id='135'> +5.1288466e+02 </wgt>
<wgt id='136'> +5.1217535e+02 </wgt>
<wgt id='137'> +4.8199763e+02 </wgt>
<wgt id='138'> +4.7018640e+02 </wgt>
<wgt id='139'> +5.1844051e+02 </wgt>
<wgt id='140'> +5.2346953e+02 </wgt>
<wgt id='141'> +5.1091071e+02 </wgt>
<wgt id='142'> +4.8286215e+02 </wgt>
<wgt id='143'> +5.1139352e+02 </wgt>
<wgt id='144'> +4.9736697e+02 </wgt>
<wgt id='145'> +5.0222241e+02 </wgt>
</rwgt>
</event>
<event>
 4      1 +5.0481800e+02 2.53225800e+02 7.54677100e-03 1.11128300e-01
       21 -1    0    0  501  502 +0.0000000000e+00 +0.0000000000e+00 +1.0130112620e+03 1.0130112620e+03 0.0000000000e+00 0.0000e+00 1.0000e+00
       21 -1    0    0  502  503 -0.0000000000e+00 -0.0000000000e+00 -7.0794389290e+01 7.0794389290e+01 0.0000000000e+00 0.0000e+00 -1.0000e+00
        6  1    1    2  501    0 +1.1760089428e+02 -1.4270367879e+02 +6.4742729877e+02 6.9518732545e+02 1.7300000000e+02 0.0000e+00 -1.0000e+00
       -6  1    1    2    0  503 -1.1760089428e+02 +1.4270367879e+02 +2.9478957395e+02 3.8861832585e+02 1.7300000000e+02 0.0000e+00 1.0000e+00
<mgrwt>
<rscale>  2 0.25322581E+03</rscale>
<asrwt>0</asrwt>
<pdfrwt beam="1">  1       21 0.15584788E+00 0.25322581E+03</pdfrwt>
<pdfrwt beam="2">  1       21 0.10891445E-01 0.25322581E+03</pdfrwt>
<totfact> 0.18141729E+04</totfact>
</mgrwt>
<rwgt>
<wgt id='1'> +6.6677288e+02 </wgt>
<wgt id='2'> +5.5529248e+02 </wgt>
<wgt id='3'> +5.0481800e+02 </wgt>
<wgt id='4'> +6.6677288e+02 </wgt>
<wgt id='5'> +4.9398053e+02 </wgt>
<wgt id='6'> +6.1046303e+02 </wgt>
<wgt id='7'> +5.0453114e+02 </wgt>
<wgt id='8'> +4.5902319e+02 </wgt>
<wgt id='9'> +6.1046303e+02 </wgt>
<wgt id='10'> +4.4924237e+02 </wgt>
<wgt id='11'> +5.5508458e+02 </wgt>
<wgt id='12'> +4.5943121e+02 </wgt>
<wgt id='13'> +4.1836346e+02 </wgt>
<wgt id='14'> +5.5508458e+02 </wgt>
<wgt id='15'> +4.0953585e+02 </wgt>
<wgt id='16'> +5.5138302e+02 </wgt>
<wgt id='17'> +4.6787835e+02 </wgt>
<wgt id='18'> +4.2742099e+02 </wgt>
<wgt id='19'> +5.5138302e+02 </wgt>
<wgt id='20'> +4.1870899e+02 </wgt>
<wgt id='21'> +4.2510786e+02 </wgt>
<wgt id='22'> +3.8864729e+02 </wgt>
<wgt id='23'> +5.0481800e+02 </wgt>
<wgt id='24'> +3.8078792e+02 </wgt>
<wgt id='25'> +4.5902319e+02 </wgt>
<wgt id='26'> +3.8710756e+02 </wgt>
<wgt id='27'> +3.5422137e+02 </wgt>
<wgt id='28'> +4.5902319e+02 </wgt>
<wgt id='29'> +3.4713178e+02 </wgt>
<wgt id='30'> +4.6684682e+02 </wgt>
<wgt id='31'> +3.9954460e+02 </wgt>
<wgt id='32'> +3.6655006e+02 </wgt>
<wgt id='33'> +4.6684682e+02 </wgt>
<wgt id='34'> +3.5941783e+02 </wgt>
<wgt id='35'> +4.2742099e+02 </wgt>
<wgt id='36'> +3.6302075e+02 </wgt>
<wgt id='37'> +3.3329829e+02 </wgt>
<wgt id='38'> +4.2742099e+02 </wgt>
<wgt id='39'> +3.2686656e+02 </wgt>
<wgt id='40'> +3.8864729e+02 </wgt>
<wgt id='41'> +3.3057040e+02 </wgt>
<wgt id='42'> +3.0377513e+02 </wgt>
<wgt id='43'> +3.8864729e+02 </wgt>
<wgt id='44'> +2.9797629e+02 </wgt>
<wgt id='45'> +5.0481800e+02 </wgt>
<wgt id='46'> +5.1929767e+02 </wgt>
<wgt id='47'> +5.2015017e+02 </wgt>
<wgt id='48'> +5.0595033e+02 </wgt>
<wgt id='49'> +4.7863432e+02 </wgt>
<wgt id='50'> +5.9993411e+02 </wgt>
<wgt id='51'> +4.8228558e+02 </wgt>
<wgt id='52'> +4.8848230e+02 </wgt>
<wgt id='53'> +5.0059730e+02 </wgt>
<wgt id='54'> +5.2711711e+02 </wgt>
<wgt id='55'> +5.2639564e+02 </wgt>
<wgt id='56'> +4.7076523e+02 </wgt>
<wgt id='57'> +5.2580570e+02 </wgt>
<wgt id='58'> +4.7190213e+02 </wgt>
<wgt id='59'> +5.4126444e+02 </wgt>
<wgt id='60'> +5.0618577e+02 </wgt>
<wgt id='61'> +4.5076412e+02 </wgt>
<wgt id='62'> +4.7914592e+02 </wgt>
<wgt id='63'> +5.2057346e+02 </wgt>
<wgt id='64'> +5.0081411e+02 </wgt>
<wgt id='65'> +5.0684388e+02 </wgt>
<wgt id='66'> +5.0408767e+02 </wgt>
<wgt id='67'> +5.0714007e+02 </wgt>
<wgt id='68'> +5.8553783e+02 </wgt>
<wgt id='69'> +5.2685660e+02 </wgt>
<wgt id='70'> +5.1961586e+02 </wgt>
<wgt id='71'> +4.8908361e+02 </wgt>
<wgt id='72'> +4.7419148e+02 </wgt>
<wgt id='73'> +4.6896430e+02 </wgt>
<wgt id='74'> +5.5757742e+02 </wgt>
<wgt id='75'> +5.3110190e+02 </wgt>
<wgt id='76'> +5.1142135e+02 </wgt>
<wgt id='77'> +4.8758627e+02 </wgt>
<wgt id='78'> +4.5464416e+02 </wgt>
<wgt id='79'> +5.2109395e+02 </wgt>
<wgt id='80'> +4.6745878e+02 </wgt>
<wgt id='81'> +5.0840035e+02 </wgt>
<wgt id='82'> +4.8930194e+02 </wgt>
<wgt id='83'> +5.0303262e+02 </wgt>
<wgt id='84'> +5.1555886e+02 </wgt>
<wgt id='85'> +4.8120126e+02 </wgt>
<wgt id='86'> +5.1892253e+02 </wgt>
<wgt id='87'> +5.0373181e+02 </wgt>
<wgt id='88'> +4.9795386e+02 </wgt>
<wgt id='89'> +4.6916811e+02 </wgt>
<wgt id='90'> +4.9321214e+02 </wgt>
<wgt id='91'> +4.7443120e+02 </wgt>
<wgt id='92'> +4.6699852e+02 </wgt>
<wgt id='93'> +5.0663098e+02 </wgt>
<wgt id='94'> +4.7386900e+02 </wgt>
<wgt id='95'> +5.1959230e+02 </wgt>
<wgt id='96'> +5.3225324e+02 </wgt>
<wgt id='97'> +4.7580652e+02 </wgt>
<wgt id='98'> +5.1988545e+02 </wgt>
<wgt id='99'> +4.4792688e+02 </wgt>
<wgt id='100'> +4.2130345e+02 </wgt>
<wgt id='101'> +5.7779419e+02 </wgt>
<wgt id='102'> +5.4934451e+02 </wgt>
<wgt id='103'> +5.1071957e+02 </wgt>
<wgt id='104'> +5.2675246e+02 </wgt>
<wgt id='105'> +5.1876920e+02 </wgt>
<wgt id='106'> +4.7567827e+02 </wgt>
<wgt id='107'> +4.8066134e+02 </wgt>
<wgt id='108'> +4.5953172e+02 </wgt>
<wgt id='109'> +4.8950482e+02 </wgt>
<wgt id='110'> +4.8072295e+02 </wgt>
<wgt id='111'> +4.9219006e+02 </wgt>
<wgt id='112'> +5.0465661e+02 </wgt>
<wgt id='113'> +4.9922722e+02 </wgt>
<wgt id='114'> +5.1035499e+02 </wgt>
<wgt id='115'> +4.6799872e+02 </wgt>
<wgt id='116'> +5.4157884e+02 </wgt>
<wgt id='117'> +4.9446587e+02 </wgt>
<wgt id='118'> +5.2688449e+02 </wgt>
<wgt id='119'> +5.2522806e+02 </wgt>
<wgt id='120'> +5.0192575e+02 </wgt>
<wgt id='121'> +4.9948269e+02 </wgt>
<wgt id='122'> +4.9713414e+02 </wgt>
<wgt id='123'> +4.9510033e+02 </wgt>
<wgt id='124'> +5.6793568e+02 </wgt>
<wgt id='125'> +6.0174073e+02 </wgt>
<wgt id='126'> +5.0552295e+02 </wgt>
<wgt id='127'> +4.9927932e+02 </wgt>
<wgt id='128'> +4.7239722e+02 </wgt>
<wgt id='129'> +5.3830796e+02 </wgt>
<wgt id='130'> +4.8936442e+02 </wgt>
<wgt id='131'> +4.9103618e+02 </wgt>
<wgt id='132'> +5.4717127e+02 </wgt>
<wgt id='133'> +5.3804604e+02 </wgt>
<wgt id='134'> +5.1383830e+02 </wgt>
<wgt id='135'> +4.9500795e+02 </wgt>
<wgt id='136'> +5.6666350e+02 </wgt>
<wgt id='137'> +5.0684559e+02 </wgt>
<wgt id='138'> +4.9925122e+02 </wgt>
<wgt id='139'> +5.2027877e+02 </wgt>
<wgt id='140'> +5.0194604e+02 </wgt>
<wgt id='141'> +5.4428572e+02 </wgt>
<wgt id='142'> +4.0975152e+02 </wgt>
<wgt id='143'> +5.1860911e+02 </wgt>
<wgt id='144'> +4.7393202e+02 </wgt>
<wgt id='145'> +4.8061598e+02 </wgt>
</rwgt>
</event>
<event>
 4      1 +5.0481800e+02 1.74595900e+02 7.54677100e-03 1.17313800e-01
       21 -1    0    0  501  502 +0.0000000000e+00 +0.0000000000e+00 +3.1328937076e+02 3.1328937076e+02 0.0000000000e+00 0.0000e+00 -1.0000e+00
       21 -1    0    0  502  503 -0.0000000000e+00 -0.0000000000e+00 -9.7373277977e+01 9.7373277977e+01 0.0000000000e+00 0.0000e+00 1.0000e+00
        6  1    1    2  501    0 +2.3072774508e+01 +4.7286131545e+00 +1.1350963976e+02 2.0825021254e+02 1.7300000000e+02 0.0000e+00 1.0000e+00
       -6  1    1    2    0  503 -2.3072774508e+01 -4.7286131545e+00 +1.0240645303e+02 2.0241243620e+02 1.7300000000e+02 0.0000e+00 1.0000e+00
<mgrwt>
<rscale>  2 0.17459586E+03</rscale>
<asrwt>0</asrwt>
<pdfrwt beam="1">  1       21 0.48198364E-01 0.17459586E+03</pdfrwt>
<pdfrwt beam="2">  1       21 0.14980505E-01 0.17459586E+03</pdfrwt>
<totfact> 0.16264242E+05</totfact>
</mgrwt>
<rwgt>
<wgt id='1'> +6.3988532e+02 </wgt>
<wgt id='2'> +8.2075252e+02 </wgt>
<wgt id='3'> +5.0481800e+02 </wgt>
<wgt id='4'> +6.3988532e+02 </wgt>
<wgt id='5'> +5.0475673e+02 </wgt>
<wgt id='6'> +6.2233793e+02 </wgt>
<wgt id='7'> +8.0766812e+02 </wgt>
<wgt id='8'> +4.8074788e+02 </wgt>
<wgt id='9'> +6.2233794e+02 </wgt>
<wgt id='10'> +4.8068665e+02 </wgt>
<wgt id='11'> +5.9266436e+02 </wgt>
<wgt id='12'> +7.8543415e+02 </wgt>
<wgt id='13'> +4.5644854e+02 </wgt>
<wgt id='14'> +5.9266437e+02 </wgt>
<wgt id='15'> +4.5639006e+02 </wgt>
<wgt id='16'> +5.1905181e+02 </wgt>
<wgt id='17'> +6.4925727e+02 </wgt>
<wgt id='18'> +4.2372517e+02 </wgt>
<wgt id='19'> +5.1905181e+02 </wgt>
<wgt id='20'> +4.2367901e+02 </wgt>
<wgt id='21'> +6.3890685e+02 </wgt>
<wgt id='22'> +4.0352162e+02 </wgt>
<wgt id='23'> +5.0481800e+02 </wgt>
<wgt id='24'> +4.0347524e+02 </wgt>
<wgt id='25'> +4.8074788e+02 </wgt>
<wgt id='26'> +6.2131864e+02 </wgt>
<wgt id='27'> +3.8312568e+02 </wgt>
<wgt id='28'> +4.8074788e+02 </wgt>
<wgt id='29'> +3.8308135e+02 </wgt>
<wgt id='30'> +4.3567249e+02 </wgt>
<wgt id='31'> +5.2675933e+02 </wgt>
<wgt id='32'> +3.6098802e+02 </wgt>
<wgt id='33'> +4.3567249e+02 </wgt>
<wgt id='34'> +3.6095114e+02 </wgt>
<wgt id='35'> +4.2372517e+02 </wgt>
<wgt id='36'> +5.1836176e+02 </wgt>
<wgt id='37'> +3.4377583e+02 </wgt>
<wgt id='38'> +4.2372517e+02 </wgt>
<wgt id='39'> +3.4373865e+02 </wgt>
<wgt id='40'> +4.0352162e+02 </wgt>
<wgt id='41'> +5.0409199e+02 </wgt>
<wgt id='42'> +3.2639972e+02 </wgt>
<wgt id='43'> +4.0352162e+02 </wgt>
<wgt id='44'> +3.2636417e+02 </wgt>
<wgt id='45'> +5.0481800e+02 </wgt>
<wgt id='46'> +5.0165191e+02 </wgt>
<wgt id='47'> +5.1890036e+02 </wgt>
<wgt id='48'> +5.0361012e+02 </wgt>
<wgt id='49'> +5.0393399e+02 </wgt>
<wgt id='50'> +5.7437051e+02 </wgt>
<wgt id='51'> +4.9533135e+02 </wgt>
<wgt id='52'> +5.0191550e+02 </wgt>
<wgt id='53'> +5.1200808e+02 </wgt>
<wgt id='54'> +5.0756282e+02 </wgt>
<wgt id='55'> +4.5630944e+02 </wgt>
<wgt id='56'> +4.7465747e+02 </wgt>
<wgt id='57'> +4.9337543e+02 </wgt>
<wgt id='58'> +5.1193092e+02 </wgt>
<wgt id='59'> +4.9621499e+02 </wgt>
<wgt id='60'> +4.8403049e+02 </wgt>
<wgt id='61'> +4.9666553e+02 </wgt>
<wgt id='62'> +4.9751936e+02 </wgt>
<wgt id='63'> +5.0525020e+02 </wgt>
<wgt id='64'> +5.0330669e+02 </wgt>
<wgt id='65'> +5.8806772e+02 </wgt>
<wgt id='66'> +4.9244535e+02 </wgt>
<wgt id='67'> +5.0921970e+02 </wgt>
<wgt id='68'> +5.3594502e+02 </wgt>
<wgt id='69'> +4.8729845e+02 </wgt>
<wgt id='70'> +4.9778152e+02 </wgt>
<wgt id='71'> +5.1442742e+02 </wgt>
<wgt id='72'> +4.9975015e+02 </wgt>
<wgt id='73'> +5.0044493e+02 </wgt>
<wgt id='74'> +5.1569175e+02 </wgt>
<wgt id='75'> +5.1389636e+02 </wgt>
<wgt id='76'> +4.9258102e+02 </wgt>
<wgt id='77'> +4.8559180e+02 </wgt>
<wgt id='78'> +5.0796954e+02 </wgt>
<wgt id='79'> +4.8372451e+02 </wgt>
<wgt id='80'> +5.0194580e+02 </wgt>
<wgt id='81'> +4.9763439e+02 </wgt>
<wgt id='82'> +5.1882572e+02 </wgt>
<wgt id='83'> +5.1156216e+02 </wgt>
<wgt id='84'> +5.4862719e+02 </wgt>
<wgt id='85'> +5.2881702e+02 </wgt>
<wgt id='86'> +4.9900237e+02 </wgt>
<wgt id='87'> +5.0374488e+02 </wgt>
<wgt id='88'> +5.1065998e+02 </wgt>
<wgt id='89'> +5.1475740e+02 </wgt>
<wgt id='90'> +5.0996741e+02 </wgt>
<wgt id='91'> +5.3597835e+02 </wgt>
<wgt id='92'> +4.7449563e+02 </wgt>
<wgt id='93'> +4.9458096e+02 </wgt>
<wgt id='94'> +5.0499789e+02 </wgt>
<wgt id='95'> +4.8805603e+02 </wgt>
<wgt id='96'> +5.3743258e+02 </wgt>
<wgt id='97'> +5.1401118e+02 </wgt>
<wgt id='98'> +4.8209940e+02 </wgt>
<wgt id='99'> +4.9222179e+02 </wgt>
<wgt id='100'> +5.0710698e+02 </wgt>
<wgt id='101'> +5.2305682e+02 </wgt>
<wgt id='102'> +4.8548876e+02 </wgt>
<wgt id='103'> +5.4319765e+02 </wgt>
<wgt id='104'> +5.0125970e+02 </wgt>
<wgt id='105'> +5.2726471e+02 </wgt>
<wgt id='106'> +4.7275105e+02 </wgt>
<wgt id='107'> +5.0487627e+02 </wgt>
<wgt id='108'> +4.6024074e+02 </wgt>
<wgt id='109'> +4.7963731e+02 </wgt>
<wgt id='110'> +5.0752631e+02 </wgt>
<wgt id='111'> +4.9444736e+02 </wgt>
<wgt id='112'> +4.8552768e+02 </wgt>
<wgt id='113'> +4.6845772e+02 </wgt>
<wgt id='114'> +5.0914795e+02 </wgt>
<wgt id='115'> +5.0892430e+02 </wgt>
<wgt id='116'> +4.9889083e+02 </wgt>
<wgt id='117'> +5.1214085e+02 </wgt>
<wgt id='118'> +5.1223749e+02 </wgt>
<wgt id='119'> +4.8859336e+02 </wgt>
<wgt id='120'> +5.0422578e+02 </wgt>
<wgt id='121'> +4.9415516e+02 </wgt>
<wgt id='122'> +4.9949394e+02 </wgt>
<wgt id='123'> +5.0858250e+02 </wgt>
<wgt id='124'> +5.3194588e+02 </wgt>
<wgt id='125'> +5.3392336e+02 </wgt>
<wgt id='126'> +5.2024041e+02 </wgt>
<wgt id='127'> +5.1703380e+02 </wgt>
<wgt id='128'> +4.7186840e+02 </wgt>
<wgt id='129'> +5.6705308e+02 </wgt>
<wgt id='130'> +5.0556390e+02 </wgt>
<wgt id='131'> +5.3901568e+02 </wgt>
<wgt id='132'> +4.9872896e+02 </wgt>
<wgt id='133'> +4.9804829e+02 </wgt>
<wgt id='134'> +4.7658564e+02 </wgt>
<wgt id='135'> +5.1722179e+02 </wgt>
<wgt id='136'> +4.8454742e+02 </wgt>
<wgt id='137'> +4.7443757e+02 </wgt>
<wgt id='138'> +4.5493583e+02 </wgt>
<wgt id='139'> +5.1253730e+02 </wgt>
<wgt id='140'> +5.3684581e+02 </wgt>
<wgt id='141'> +5.0257085e+02 </wgt>
<wgt id='142'> +5.1196904e+02 </wgt>
<wgt id='143'> +5.0026059e+02 </wgt>
<wgt id='144'> +5.0797804e+02 </wgt>
<wgt id='145'> +5.0574126e+02 </wgt>
</rwgt>
</event>
<event>
 4      1 +5.0481800e+02 2.27238500e+02 7.54677100e-03 1.12859900e-01
       21 -1    0    0  501  502 +0.0000000000e+00 +0.0000000000e+00 +3.5659974581e+02 3.5659974581e+02 0.0000000000e+00 0.0000e+00 -1.0000e+00
       21 -1    0    0  502  503 -0.0000000000e+00 -0.0000000000e+00 -2.1511835529e+02 2.1511835529e+02 0.0000000000e+00 0.0000e+00 -1.0000e+00
        6  1    1    2  501    0 +4.2046812535e+01 -1.4121047633e+02 +2.3417112786e+02 3.2630269719e+02 1.7300000000e+02 0.0000e+00 -1.0000e+00
       -6  1    1    2    0  503 -4.2046812535e+01 +1.4121047633e+02 -9.2689737341e+01 2.4541540391e+02 1.7300000000e+02 0.0000e+00 -1.0000e+00
<mgrwt>
<rscale>  2 0.22723849E+03</rscale>
<asrwt>0</asrwt>
<pdfrwt beam="1">  1       21 0.54861499E-01 0.22723849E+03</pdfrwt>
<pdfrwt beam="2">  1       21 0.33095132E-01 0.22723849E+03</pdfrwt>
<totfact> 0.27056986E+04</totfact>
</mgrwt>
<rwgt>
<wgt id='1'> +6.5662653e+02 </wgt>
<wgt id='2'> +5.3860479e+02 </wgt>
<wgt id='3'> +5.0481800e+02 </wgt>
<wgt id='4'> +6.5662653e+02 </wgt>
<wgt id='5'> +4.6973607e+02 </wgt>
<wgt id='6'> +6.1391134e+02 </wgt>
<wgt id='7'> +4.9802391e+02 </wgt>
<wgt id='8'> +4.6682726e+02 </wgt>
<wgt id='9'> +6.1391133e+02 </wgt>
<wgt id='10'> +4.3451535e+02 </wgt>
<wgt id='11'> +5.6771065e+02 </wgt>
<wgt id='12'> +4.6094908e+02 </wgt>
<wgt id='13'> +4.3223474e+02 </wgt>
<wgt id='14'> +5.6771064e+02 </wgt>
<wgt id='15'> +4.0250065e+02 </wgt>
<wgt id='16'> +5.3994261e+02 </wgt>
<wgt id='17'> +4.5332598e+02 </wgt>
<wgt id='18'> +4.2649179e+02 </wgt>
<wgt id='19'> +5.3994261e+02 </wgt>
<wgt id='20'> +3.9842319e+02 </wgt>
<wgt id='21'> +4.1917038e+02 </wgt>
<wgt id='22'> +3.9439560e+02 </wgt>
<wgt id='23'> +5.0481800e+02 </wgt>
<wgt id='24'> +3.6854950e+02 </wgt>
<wgt id='25'> +4.6682727e+02 </wgt>
<wgt id='26'> +3.8796571e+02 </wgt>
<wgt id='27'> +3.6517036e+02 </wgt>
<wgt id='28'> +4.6682726e+02 </wgt>
<wgt id='29'> +3.4139511e+02 </wgt>
<wgt id='30'> +4.5616656e+02 </wgt>
<wgt id='31'> +3.8683112e+02 </wgt>
<wgt id='32'> +3.6506908e+02 </wgt>
<wgt id='33'> +4.5616656e+02 </wgt>
<wgt id='34'> +3.4219707e+02 </wgt>
<wgt id='35'> +4.2649179e+02 </wgt>
<wgt id='36'> +3.5768555e+02 </wgt>
<wgt id='37'> +3.3759533e+02 </wgt>
<wgt id='38'> +4.2649179e+02 </wgt>
<wgt id='39'> +3.1653920e+02 </wgt>
<wgt id='40'> +3.9439560e+02 </wgt>
<wgt id='41'> +3.3105804e+02 </wgt>
<wgt id='42'> +3.1257907e+02 </wgt>
<wgt id='43'> +3.9439560e+02 </wgt>
<wgt id='44'> +2.9321688e+02 </wgt>
<wgt id='45'> +5.0481800e+02 </wgt>
<wgt id='46'> +5.1049207e+02 </wgt>
<wgt id='47'> +5.2608439e+02 </wgt>
<wgt id='48'> +5.0983724e+02 </wgt>
<wgt id='49'> +5.0310419e+02 </wgt>
<wgt id='50'> +6.0527863e+02 </wgt>
<wgt id='51'> +4.9499449e+02 </wgt>
<wgt id='52'> +5.0318097e+02 </wgt>
<wgt id='53'> +5.0639637e+02 </wgt>
<wgt id='54'> +5.0797114e+02 </wgt>
<wgt id='55'> +4.5054986e+02 </wgt>
<wgt id='56'> +4.6338602e+02 </wgt>
<wgt id='57'> +4.9151227e+02 </wgt>
<wgt id='58'> +5.0265215e+02 </wgt>
<wgt id='59'> +5.0368254e+02 </wgt>
<wgt id='60'> +4.8962446e+02 </wgt>
<wgt id='61'> +4.7957199e+02 </wgt>
<wgt id='62'> +4.9912662e+02 </wgt>
<wgt id='63'> +5.0530980e+02 </wgt>
<wgt id='64'> +4.9502214e+02 </wgt>
<wgt id='65'> +5.9461505e+02 </wgt>
<wgt id='66'> +4.9403604e+02 </wgt>
<wgt id='67'> +5.0928864e+02 </wgt>
<wgt id='68'> +5.4794893e+02 </wgt>
<wgt id='69'> +4.9957204e+02 </wgt>
<wgt id='70'> +4.9537073e+02 </wgt>
<wgt id='71'> +5.1396071e+02 </wgt>
<wgt id='72'> +4.8060175e+02 </wgt>
<wgt id='73'> +4.9512294e+02 </wgt>
<wgt id='74'> +5.2627768e+02 </wgt>
<wgt id='75'> +5.1771077e+02 </wgt>
<wgt id='76'> +4.8877496e+02 </wgt>
<wgt id='77'> +4.8966354e+02 </wgt>
<wgt id='78'> +4.9842408e+02 </wgt>
<wgt id='79'> +4.8781874e+02 </wgt>
<wgt id='80'> +4.9798525e+02 </wgt>
<wgt id='81'> +4.9328483e+02 </wgt>
<wgt id='82'> +5.1472150e+02 </wgt>
<wgt id='83'> +5.1818413e+02 </wgt>
<wgt id='84'> +5.5759329e+02 </wgt>
<wgt id='85'> +5.3095037e+02 </wgt>
<wgt id='86'> +5.0515981e+02 </wgt>
<wgt id='87'> +5.0685163e+02 </wgt>
<wgt id='88'> +5.1517873e+02 </wgt>
<wgt id='89'> +5.1907526e+02 </wgt>
<wgt id='90'> +5.1248320e+02 </wgt>
<wgt id='91'> +5.3513851e+02 </wgt>
<wgt id='92'> +4.5421592e+02 </wgt>
<wgt id='93'> +4.9930848e+02 </wgt>
<wgt id='94'> +4.9778026e+02 </wgt>
<wgt id='95'> +4.8203489e+02 </wgt>
<wgt id='96'> +5.5296883e+02 </wgt>
<wgt id='97'> +5.0901692e+02 </wgt>
<wgt id='98'> +4.8304314e+02 </wgt>
<wgt id='99'> +4.8728516e+02 </wgt>
<wgt id='100'> +4.9064300e+02 </wgt>
<wgt id='101'> +5.4221761e+02 </wgt>
<wgt id='102'> +5.0033859e+02 </wgt>
<wgt id='103'> +5.5283413e+02 </wgt>
<wgt id='104'> +5.0721432e+02 </wgt>
<wgt id='105'> +5.2088444e+02 </wgt>
<wgt id='106'> +4.5520469e+02 </wgt>
<wgt id='107'> +4.8899412e+02 </wgt>
<wgt id='108'> +4.4333866e+02 </wgt>
<wgt id='109'> +4.6868405e+02 </wgt>
<wgt id='110'> +5.0358637e+02 </wgt>
<wgt id='111'> +4.8832450e+02 </wgt>
<wgt id='112'> +4.7650126e+02 </wgt>
<wgt id='113'> +4.5912531e+02 </wgt>
<wgt id='114'> +4.9439654e+02 </wgt>
<wgt id='115'> +4.9577052e+02 </wgt>
<wgt id='116'> +5.1304932e+02 </wgt>
<wgt id='117'> +5.0798765e+02 </wgt>
<wgt id='118'> +5.2515820e+02 </wgt>
<wgt id='119'> +4.8261285e+02 </wgt>
<wgt id='120'> +4.9684130e+02 </wgt>
<wgt id='121'> +4.8772124e+02 </wgt>
<wgt id='122'> +4.9715484e+02 </wgt>
<wgt id='123'> +5.1336429e+02 </wgt>
<wgt id='124'> +5.4906313e+02 </wgt>
<wgt id='125'> +5.4959203e+02 </wgt>
<wgt id='126'> +5.2762414e+02 </wgt>
<wgt id='127'> +5.2253696e+02 </wgt>
<wgt id='128'> +4.6351213e+02 </wgt>
<wgt id='129'> +5.7460579e+02 </wgt>
<wgt id='130'> +5.1028855e+02 </wgt>
<wgt id='131'> +5.3995354e+02 </wgt>
<wgt id='132'> +5.0581220e+02 </wgt>
<wgt id='133'> +5.0771973e+02 </wgt>
<wgt id='134'> +4.7630945e+02 </wgt>
<wgt id='135'> +5.1756098e+02 </wgt>
<wgt id='136'> +4.8931993e+02 </wgt>
<wgt id='137'> +4.7795993e+02 </wgt>
<wgt id='138'> +4.6623987e+02 </wgt>
<wgt id='139'> +5.1771316e+02 </wgt>
<wgt id='140'> +5.3290643e+02 </wgt>
<wgt id='141'> +5.0635515e+02 </wgt>
<wgt id='142'> +4.9973511e+02 </wgt>
<wgt id='143'> +5.0376960e+02 </wgt>
<wgt id='144'> +4.9982550e+02 </wgt>
<wgt id='145'> +5.0601739e+02 </wgt>
</rwgt>
</event>
<event>
 4      1 +5.0481800e+02 1.74484700e+02 7.54677100e-03 1.17325000e-01
       21 -1    0    0  501  502 +0.0000000000e+00 +0.0000000000e+00 +1.0616959785e+03 1.0616959785e+03 0.0000000000e+00 0.0000e+00 -1.0000e+00
       21 -1    0    0  502  503 -0.0000000000e+00 -0.0000000000e+00 -4.8597097640e+01 4.8597097640e+01 0.0000000000e+00 0.0000e+00 -1.0000e+00
        6  1    1    2  501    0 -1.7779491146e+01 +1.4134527584e+01 +8.6198605874e+02 8.7946851032e+02 1.7300000000e+02 0.0000e+00 -1.0000e+00
       -6  1    1    2    0  503 +1.7779491146e+01 -1.4134527584e+01 +1.5111282210e+02 2.3082456580e+02 1.7300000000e+02 0.0000e+00 -1.0000e+00
<mgrwt>
<rscale>  2 0.17448466E+03</rscale>
<asrwt>0</asrwt>
<pdfrwt beam="1">  1       21 0.16333783E+00 0.17448466E+03</pdfrwt>
<pdfrwt beam="2">  1       21 0.74764773E-02 0.17448466E+03</pdfrwt>
<totfact> 0.32505650E+04</totfact>
</mgrwt>
<rwgt>
<wgt id='1'> +6.6834924e+02 </wgt>
<wgt id='2'> +1.0883876e+03 </wgt>
<wgt id='3'> +5.0481800e+02 </wgt>
<wgt id='4'> +6.6834925e+02 </wgt>
<wgt id='5'> +4.5579097e+02 </wgt>
<wgt id='6'> +6.2235609e+02 </wgt>
<wgt id='7'> +1.0276046e+03 </wgt>
<wgt id='8'> +4.6208107e+02 </wgt>
<wgt id='9'> +6.2235610e+02 </wgt>
<wgt id='10'> +4.1694962e+02 </wgt>
<wgt id='11'> +5.6966861e+02 </wgt>
<wgt id='12'> +9.6077158e+02 </wgt>
<wgt id='13'> +4.2307320e+02 </wgt>
<wgt id='14'> +5.6966862e+02 </wgt>
<wgt id='15'> +3.8201161e+02 </wgt>
<wgt id='16'> +5.4212489e+02 </wgt>
<wgt id='17'> +8.4545022e+02 </wgt>
<wgt id='18'> +4.2371599e+02 </wgt>
<wgt id='19'> +5.4212489e+02 </wgt>
<wgt id='20'> +3.8506865e+02 </wgt>
<wgt id='21'> +7.9823454e+02 </wgt>
<wgt id='22'> +3.8784500e+02 </wgt>
<wgt id='23'> +5.0481800e+02 </wgt>
<wgt id='24'> +3.5225408e+02 </wgt>
<wgt id='25'> +4.6208107e+02 </wgt>
<wgt id='26'> +7.4631918e+02 </wgt>
<wgt id='27'> +3.5510398e+02 </wgt>
<wgt id='28'> +4.6208107e+02 </wgt>
<wgt id='29'> +3.2273718e+02 </wgt>
<wgt id='30'> +4.5502931e+02 </wgt>
<wgt id='31'> +6.7562644e+02 </wgt>
<wgt id='32'> +3.6097594e+02 </wgt>
<wgt id='33'> +4.5502931e+02 </wgt>
<wgt id='34'> +3.2960931e+02 </wgt>
<wgt id='35'> +4.2371599e+02 </wgt>
<wgt id='36'> +6.3789487e+02 </wgt>
<wgt id='37'> +3.3041640e+02 </wgt>
<wgt id='38'> +4.2371599e+02 </wgt>
<wgt id='39'> +3.0152084e+02 </wgt>
<wgt id='40'> +3.8784500e+02 </wgt>
<wgt id='41'> +5.9640763e+02 </wgt>
<wgt id='42'> +3.0252337e+02 </wgt>
<wgt id='43'> +3.8784500e+02 </wgt>
<wgt id='44'> +2.7625510e+02 </wgt>
<wgt id='45'> +5.0481800e+02 </wgt>
<wgt id='46'> +5.1900406e+02 </wgt>
<wgt id='47'> +5.1702895e+02 </wgt>
<wgt id='48'> +5.0462929e+02 </wgt>
<wgt id='49'> +4.7735086e+02 </wgt>
<wgt id='50'> +5.9334550e+02 </wgt>
<wgt id='51'> +4.8109173e+02 </wgt>
<wgt id='52'> +4.8806076e+02 </wgt>
<wgt id='53'> +4.9943053e+02 </wgt>
<wgt id='54'> +5.2876250e+02 </wgt>
<wgt id='55'> +5.3432213e+02 </wgt>
<wgt id='56'> +4.7343464e+02 </wgt>
<wgt id='57'> +5.2904967e+02 </wgt>
<wgt id='58'> +4.7191809e+02 </wgt>
<wgt id='59'> +5.4442792e+02 </wgt>
<wgt id='60'> +5.0948346e+02 </wgt>
<wgt id='61'> +4.5270611e+02 </wgt>
<wgt id='62'> +4.7754652e+02 </wgt>
<wgt id='63'> +5.2246568e+02 </wgt>
<wgt id='64'> +5.0288251e+02 </wgt>
<wgt id='65'> +4.9663362e+02 </wgt>
<wgt id='66'> +5.0411117e+02 </wgt>
<wgt id='67'> +5.0697306e+02 </wgt>
<wgt id='68'> +5.8652750e+02 </wgt>
<wgt id='69'> +5.2544870e+02 </wgt>
<wgt id='70'> +5.2128022e+02 </wgt>
<wgt id='71'> +4.8663003e+02 </wgt>
<wgt id='72'> +4.7701860e+02 </wgt>
<wgt id='73'> +4.6852061e+02 </wgt>
<wgt id='74'> +5.5859857e+02 </wgt>
<wgt id='75'> +5.3107002e+02 </wgt>
<wgt id='76'> +5.1368158e+02 </wgt>
<wgt id='77'> +4.8772407e+02 </wgt>
<wgt id='78'> +4.5196505e+02 </wgt>
<wgt id='79'> +5.2397748e+02 </wgt>
<wgt id='80'> +4.6549327e+02 </wgt>
<wgt id='81'> +5.1018670e+02 </wgt>
<wgt id='82'> +4.8832643e+02 </wgt>
<wgt id='83'> +4.9960378e+02 </wgt>
<wgt id='84'> +5.0985279e+02 </wgt>
<wgt id='85'> +4.7740718e+02 </wgt>
<wgt id='86'> +5.1882268e+02 </wgt>
<wgt id='87'> +5.0363644e+02 </wgt>
<wgt id='88'> +4.9379788e+02 </wgt>
<wgt id='89'> +4.6606287e+02 </wgt>
<wgt id='90'> +4.9202718e+02 </wgt>
<wgt id='91'> +4.6957864e+02 </wgt>
<wgt id='92'> +4.7074441e+02 </wgt>
<wgt id='93'> +5.0693328e+02 </wgt>
<wgt id='94'> +4.7313853e+02 </wgt>
<wgt id='95'> +5.2382087e+02 </wgt>
<wgt id='96'> +5.2862100e+02 </wgt>
<wgt id='97'> +4.7351424e+02 </wgt>
<wgt id='98'> +5.2160047e+02 </wgt>
<wgt id='99'> +4.4613145e+02 </wgt>
<wgt id='100'> +4.1809946e+02 </wgt>
<wgt id='101'> +5.7836496e+02 </wgt>
<wgt id='102'> +5.5118674e+02 </wgt>
<wgt id='103'> +5.0705789e+02 </wgt>
<wgt id='104'> +5.2607278e+02 </wgt>
<wgt id='105'> +5.1962407e+02 </wgt>
<wgt id='106'> +4.7972127e+02 </wgt>
<wgt id='107'> +4.8205321e+02 </wgt>
<wgt id='108'> +4.6268020e+02 </wgt>
<wgt id='109'> +4.9285073e+02 </wgt>
<wgt id='110'> +4.8074432e+02 </wgt>
<wgt id='111'> +4.9285442e+02 </wgt>
<wgt id='112'> +5.0862759e+02 </wgt>
<wgt id='113'> +5.0371764e+02 </wgt>
<wgt id='114'> +5.1405504e+02 </wgt>
<wgt id='115'> +4.6462983e+02 </wgt>
<wgt id='116'> +5.4148649e+02 </wgt>
<wgt id='117'> +4.9297028e+02 </wgt>
<wgt id='118'> +5.2570703e+02 </wgt>
<wgt id='119'> +5.3069493e+02 </wgt>
<wgt id='120'> +5.0207271e+02 </wgt>
<wgt id='121'> +5.0225217e+02 </wgt>
<wgt id='122'> +4.9760087e+02 </wgt>
<wgt id='123'> +4.9236525e+02 </wgt>
<wgt id='124'> +5.6738877e+02 </wgt>
<wgt id='125'> +6.0382816e+02 </wgt>
<wgt id='126'> +5.0305348e+02 </wgt>
<wgt id='127'> +4.9715950e+02 </wgt>
<wgt id='128'> +4.7273654e+02 </wgt>
<wgt id='129'> +5.3495317e+02 </wgt>
<wgt id='130'> +4.8471080e+02 </wgt>
<wgt id='131'> +4.8735288e+02 </wgt>
<wgt id='132'> +5.5110848e+02 </wgt>
<wgt id='133'> +5.3969827e+02 </wgt>
<wgt id='134'> +5.1708156e+02 </wgt>
<wgt id='135'> +4.9350413e+02 </wgt>
<wgt id='136'> +5.7351626e+02 </wgt>
<wgt id='137'> +5.0718901e+02 </wgt>
<wgt id='138'> +4.9833365e+02 </wgt>
<wgt id='139'> +5.2064768e+02 </wgt>
<wgt id='140'> +5.0013408e+02 </wgt>
<wgt id='141'> +5.4565408e+02 </wgt>
<wgt id='142'> +4.0377497e+02 </wgt>
<wgt id='143'> +5.2015772e+02 </wgt>
<wgt id='144'> +4.7354730e+02 </wgt>
<wgt id='145'> +4.7764524e+02 </wgt>
</rwgt>
</event>
<event>
 4      1 +5.0481800e+02 1.73793100e+02 7.54677100e-03 1.17394900e-01
       21 -1    0    0  501  502 +0.0000000000e+00 +0.0000000000e+00 +7.5004583565e+01 7.5004583565e+01 0.0000000000e+00 0.0000e+00 -1.0000e+00
       21 -1    0    0  502  503 -0.0000000000e+00 -0.0000000000e+00 -4.0616573335e+02 4.0616573335e+02 0.0000000000e+00 0.0000e+00 -1.0000e+00
        6  1    1    2  501    0 +9.9242962037e+00 -1.3287254172e+01 -1.8781714240e+02 2.5588927636e+02 1.7300000000e+02 0.0000e+00 1.0000e+00
       -6  1    1    2    0  503 -9.9242962037e+00 +1.3287254172e+01 -1.4334400739e+02 2.2528104055e+02 1.7300000000e+02 0.0000e+00 1.0000e+00
<mgrwt>
<rscale>  2 0.17379310E+03</rscale>
<asrwt>0</asrwt>
<pdfrwt beam="1">  1       21 0.11539167E-01 0.17379310E+03</pdfrwt>
<pdfrwt beam="2">  1       21 0.62487036E-01 0.17379310E+03</pdfrwt>
<totfact> 0.15035939E+05</totfact>
</mgrwt>
<rwgt>
<wgt id='1'> +6.4136651e+02 </wgt>
<wgt id='2'> +1.0334015e+03 </wgt>
<wgt id='3'> +5.0481800e+02 </wgt>
<wgt id='4'> +6.4136650e+02 </wgt>
<wgt id='5'> +5.0409276e+02 </wgt>
<wgt id='6'> +6.2246863e+02 </wgt>
<wgt id='7'> +1.0297384e+03 </wgt>
<wgt id='8'> +4.7979207e+02 </wgt>
<wgt id='9'> +6.2246863e+02 </wgt>
<wgt id='10'> +4.7906918e+02 </wgt>
<wgt id='11'> +5.9161027e+02 </wgt>
<wgt id='12'> +1.0090081e+03 </wgt>
<wgt id='13'> +4.5466639e+02 </wgt>
<wgt id='14'> +5.9161027e+02 </wgt>
<wgt id='15'> +4.5397767e+02 </wgt>
<wgt id='16'> +5.2014405e+02 </wgt>
<wgt id='17'> +7.9620588e+02 </wgt>
<wgt id='18'> +4.2365847e+02 </wgt>
<wgt id='19'> +5.2014405e+02 </wgt>
<wgt id='20'> +4.2311185e+02 </wgt>
<wgt id='21'> +7.9338355e+02 </wgt>
<wgt id='22'> +4.0265596e+02 </wgt>
<wgt id='23'> +5.0481800e+02 </wgt>
<wgt id='24'> +4.0210823e+02 </wgt>
<wgt id='25'> +4.7979207e+02 </wgt>
<wgt id='26'> +7.7741141e+02 </wgt>
<wgt id='27'> +3.8156974e+02 </wgt>
<wgt id='28'> +4.7979207e+02 </wgt>
<wgt id='29'> +3.8104759e+02 </wgt>
<wgt id='30'> +4.3652056e+02 </wgt>
<wgt id='31'> +6.3228585e+02 </wgt>
<wgt id='32'> +3.6090031e+02 </wgt>
<wgt id='33'> +4.3652056e+02 </wgt>
<wgt id='34'> +3.6046338e+02 </wgt>
<wgt id='35'> +4.2365848e+02 </wgt>
<wgt id='36'> +6.3004458e+02 </wgt>
<wgt id='37'> +3.4300898e+02 </wgt>
<wgt id='38'> +4.2365847e+02 </wgt>
<wgt id='39'> +3.4256968e+02 </wgt>
<wgt id='40'> +4.0265596e+02 </wgt>
<wgt id='41'> +6.1736072e+02 </wgt>
<wgt id='42'> +3.2504634e+02 </wgt>
<wgt id='43'> +4.0265596e+02 </wgt>
<wgt id='44'> +3.2462740e+02 </wgt>
<wgt id='45'> +5.0481800e+02 </wgt>
<wgt id='46'> +5.0513448e+02 </wgt>
<wgt id='47'> +5.1857687e+02 </wgt>
<wgt id='48'> +5.0496430e+02 </wgt>
<wgt id='49'> +5.0300324e+02 </wgt>
<wgt id='50'> +5.7817052e+02 </wgt>
<wgt id='51'> +4.9523316e+02 </wgt>
<wgt id='52'> +5.0334608e+02 </wgt>
<wgt id='53'> +5.0773429e+02 </wgt>
<wgt id='54'> +5.0806677e+02 </wgt>
<wgt id='55'> +4.6167096e+02 </wgt>
<wgt id='56'> +4.7183280e+02 </wgt>
<wgt id='57'> +4.9636638e+02 </wgt>
<wgt id='58'> +5.0883870e+02 </wgt>
<wgt id='59'> +5.0322529e+02 </wgt>
<wgt id='60'> +4.9078431e+02 </wgt>
<wgt id='61'> +4.8432565e+02 </wgt>
<wgt id='62'> +4.9763545e+02 </wgt>
<wgt id='63'> +5.0543324e+02 </wgt>
<wgt id='64'> +5.0070565e+02 </wgt>
<wgt id='65'> +5.7871104e+02 </wgt>
<wgt id='66'> +4.9335400e+02 </wgt>
<wgt id='67'> +5.0887605e+02 </wgt>
<wgt id='68'> +5.4012291e+02 </wgt>
<wgt id='69'> +4.9044429e+02 </wgt>
<wgt id='70'> +4.9789218e+02 </wgt>
<wgt id='71'> +5.1366028e+02 </wgt>
<wgt id='72'> +4.9703470e+02 </wgt>
<wgt id='73'> +4.9885047e+02 </wgt>
<wgt id='74'> +5.1948532e+02 </wgt>
<wgt id='75'> +5.1382681e+02 </wgt>
<wgt id='76'> +4.9390951e+02 </wgt>
<wgt id='77'> +4.8895104e+02 </wgt>
<wgt id='78'> +5.0214291e+02 </wgt>
<wgt id='79'> +4.8789716e+02 </wgt>
<wgt id='80'> +4.9990950e+02 </wgt>
<wgt id='81'> +4.9712792e+02 </wgt>
<wgt id='82'> +5.1390317e+02 </wgt>
<wgt id='83'> +5.1084261e+02 </wgt>
<wgt id='84'> +5.4582224e+02 </wgt>
<wgt id='85'> +5.2543593e+02 </wgt>
<wgt id='86'> +5.0072104e+02 </wgt>
<wgt id='87'> +5.0515145e+02 </wgt>
<wgt id='88'> +5.0915014e+02 </wgt>
<wgt id='89'> +5.1522376e+02 </wgt>
<wgt id='90'> +5.1196999e+02 </wgt>
<wgt id='91'> +5.3163816e+02 </wgt>
<wgt id='92'> +4.7226870e+02 </wgt>
<wgt id='93'> +4.9685105e+02 </wgt>
<wgt id='94'> +5.0230201e+02 </wgt>
<wgt id='95'> +4.9021057e+02 </wgt>
<wgt id='96'> +5.3752898e+02 </wgt>
<wgt id='97'> +5.1062348e+02 </wgt>
<wgt id='98'> +4.8463525e+02 </wgt>
<wgt id='99'> +4.9048758e+02 </wgt>
<wgt id='100'> +4.9998150e+02 </wgt>
<wgt id='101'> +5.3067963e+02 </wgt>
<wgt id='102'> +4.9331209e+02 </wgt>
<wgt id='103'> +5.4343140e+02 </wgt>
<wgt id='104'> +5.0230265e+02 </wgt>
<wgt id='105'> +5.2538371e+02 </wgt>
<wgt id='106'> +4.7024650e+02 </wgt>
<wgt id='107'> +4.9927212e+02 </wgt>
<wgt id='108'> +4.5700991e+02 </wgt>
<wgt id='109'> +4.7870128e+02 </wgt>
<wgt id='110'> +5.0665816e+02 </wgt>
<wgt id='111'> +4.9343274e+02 </wgt>
<wgt id='112'> +4.8310827e+02 </wgt>
<wgt id='113'> +4.6856581e+02 </wgt>
<wgt id='114'> +5.0404616e+02 </wgt>
<wgt id='115'> +4.9951059e+02 </wgt>
<wgt id='116'> +5.0398559e+02 </wgt>
<wgt id='117'> +5.0818473e+02 </wgt>
<wgt id='118'> +5.1627393e+02 </wgt>
<wgt id='119'> +4.8937710e+02 </wgt>
<wgt id='120'> +4.9882121e+02 </wgt>
<wgt id='121'> +4.9476557e+02 </wgt>
<wgt id='122'> +4.9958910e+02 </wgt>
<wgt id='123'> +5.0802465e+02 </wgt>
<wgt id='124'> +5.3744944e+02 </wgt>
<wgt id='125'> +5.3959845e+02 </wgt>
<wgt id='126'> +5.2010730e+02 </wgt>
<wgt id='127'> +5.1750485e+02 </wgt>
<wgt id='128'> +4.6816165e+02 </wgt>
<wgt id='129'> +5.6603047e+02 </wgt>
<wgt id='130'> +5.0334570e+02 </wgt>
<wgt id='131'> +5.3590100e+02 </wgt>
<wgt id='132'> +5.0688886e+02 </wgt>
<wgt id='133'> +5.0284302e+02 </wgt>
<wgt id='134'> +4.8061905e+02 </wgt>
<wgt id='135'> +5.1616817e+02 </wgt>
<wgt id='136'> +4.9309503e+02 </wgt>
<wgt id='137'> +4.7646994e+02 </wgt>
<wgt id='138'> +4.5918667e+02 </wgt>
<wgt id='139'> +5.1463418e+02 </wgt>
<wgt id='140'> +5.3217269e+02 </wgt>
<wgt id='141'> +5.0406242e+02 </wgt>
<wgt id='142'> +5.0408316e+02 </wgt>
<wgt id='143'> +5.0462770e+02 </wgt>
<wgt id='144'> +5.0573995e+02 </wgt>
<wgt id='145'> +5.0519613e+02 </wgt>
</rwgt>
</event>
<event>
 4      1 +5.0481800e+02 1.74902300e+02 7.54677100e-03 1.17283000e-01
       21 -1    0    0  503  502 +0.0000000000e+00 +0.0000000000e+00 +8.3309005133e+02 8.3309005133e+02 0.0000000000e+00 0.0000e+00 1.0000e+00
       21 -1    0    0  501  503 -0.0000000000e+00 -0.0000000000e+00 -4.8425675530e+01 4.8425675530e+01 0.0000000000e+00 0.0000e+00 1.0000e+00
        6  1    1    2  501    0 +1.4115523010e+01 -2.1507700636e+01 +1.7562877322e+02 2.4786346072e+02 1.7300000000e+02 0.0000e+00 1.0000e+00
       -6  1    1    2    0  502 -1.4115523010e+01 +2.1507700636e+01 +6.0903560258e+02 6.3365226614e+02 1.7300000000e+02 0.0000e+00 1.0000e+00
<mgrwt>
<rscale>  2 0.17490234E+03</rscale>
<asrwt>0</asrwt>
<pdfrwt beam="1">  1       21 0.12816769E+00 0.17490234E+03</pdfrwt>
<pdfrwt beam="2">  1       21 0.74501045E-02 0.17490234E+03</pdfrwt>
<totfact> 0.61391746E+04</totfact>
</mgrwt>
<rwgt>
<wgt id='1'> +6.5626035e+02 </wgt>
<wgt id='2'> +9.9672345e+02 </wgt>
<wgt id='3'> +5.0481800e+02 </wgt>
<wgt id='4'> +6.5626034e+02 </wgt>
<wgt id='5'> +4.7996866e+02 </wgt>
<wgt id='6'> +6.2228777e+02 </wgt>
<wgt id='7'> +9.5999294e+02 </wgt>
<wgt id='8'> +4.6971026e+02 </wgt>
<wgt id='9'> +6.2228776e+02 </wgt>
<wgt id='10'> +4.4605407e+02 </wgt>
<wgt id='11'> +5.7901056e+02 </wgt>
<wgt id='12'> +9.1422136e+02 </wgt>
<wgt id='13'> +4.3652343e+02 </wgt>
<wgt id='14'> +5.7901056e+02 </wgt>
<wgt id='15'> +4.1456793e+02 </wgt>
<wgt id='16'> +5.3237755e+02 </wgt>
<wgt id='17'> +7.7730070e+02 </wgt>
<wgt id='18'> +4.2375038e+02 </wgt>
<wgt id='19'> +5.3237755e+02 </wgt>
<wgt id='20'> +4.0451384e+02 </wgt>
<wgt id='21'> +7.4865620e+02 </wgt>
<wgt id='22'> +3.9428052e+02 </wgt>
<wgt id='23'> +5.0481800e+02 </wgt>
<wgt id='24'> +3.7593089e+02 </wgt>
<wgt id='25'> +4.6971027e+02 </wgt>
<wgt id='26'> +7.1296095e+02 </wgt>
<wgt id='27'> +3.6642308e+02 </wgt>
<wgt id='28'> +4.6971026e+02 </wgt>
<wgt id='29'> +3.4939461e+02 </wgt>
<wgt id='30'> +4.4688420e+02 </wgt>
<wgt id='31'> +6.2309727e+02 </wgt>
<wgt id='32'> +3.6102123e+02 </wgt>
<wgt id='33'> +4.4688420e+02 </wgt>
<wgt id='34'> +3.4550128e+02 </wgt>
<wgt id='35'> +4.2375038e+02 </wgt>
<wgt id='36'> +6.0013535e+02 </wgt>
<wgt id='37'> +3.3591389e+02 </wgt>
<wgt id='38'> +4.2375038e+02 </wgt>
<wgt id='39'> +3.2108815e+02 </wgt>
<wgt id='40'> +3.9428052e+02 </wgt>
<wgt id='41'> +5.7152145e+02 </wgt>
<wgt id='42'> +3.1218028e+02 </wgt>
<wgt id='43'> +3.9428052e+02 </wgt>
<wgt id='44'> +2.9842313e+02 </wgt>
<wgt id='45'> +5.0481800e+02 </wgt>
<wgt id='46'> +5.1721354e+02 </wgt>
<wgt id='47'> +5.1575596e+02 </wgt>
<wgt id='48'> +5.0598928e+02 </wgt>
<wgt id='49'> +4.8909160e+02 </wgt>
<wgt id='50'> +5.9123342e+02 </wgt>
<wgt id='51'> +4.8802156e+02 </wgt>
<wgt id='52'> +4.9926661e+02 </wgt>
<wgt id='53'> +4.9677362e+02 </wgt>
<wgt id='54'> +5.1983155e+02 </wgt>
<wgt id='55'> +5.0522287e+02 </wgt>
<wgt id='56'> +4.6719886e+02 </wgt>
<wgt id='57'> +5.1845256e+02 </wgt>
<wgt id='58'> +4.8624446e+02 </wgt>
<wgt id='59'> +5.3494812e+02 </wgt>
<wgt id='60'> +5.1025509e+02 </wgt>
<wgt id='61'> +4.3962588e+02 </wgt>
<wgt id='62'> +4.8843400e+02 </wgt>
<wgt id='63'> +5.1315872e+02 </wgt>
<wgt id='64'> +4.9972311e+02 </wgt>
<wgt id='65'> +5.2717226e+02 </wgt>
<wgt id='66'> +4.9917670e+02 </wgt>
<wgt id='67'> +5.0679981e+02 </wgt>
<wgt id='68'> +5.6586431e+02 </wgt>
<wgt id='69'> +5.1022968e+02 </wgt>
<wgt id='70'> +5.0683290e+02 </wgt>
<wgt id='71'> +5.0028614e+02 </wgt>
<wgt id='72'> +4.8656003e+02 </wgt>
<wgt id='73'> +4.8137351e+02 </wgt>
<wgt id='74'> +5.4221503e+02 </wgt>
<wgt id='75'> +5.1975985e+02 </wgt>
<wgt id='76'> +5.0649004e+02 </wgt>
<wgt id='77'> +4.9422128e+02 </wgt>
<wgt id='78'> +4.6958427e+02 </wgt>
<wgt id='79'> +5.1030908e+02 </wgt>
<wgt id='80'> +4.8110609e+02 </wgt>
<wgt id='81'> +5.0141401e+02 </wgt>
<wgt id='82'> +4.8938482e+02 </wgt>
<wgt id='83'> +5.0351252e+02 </wgt>
<wgt id='84'> +5.2440509e+02 </wgt>
<wgt id='85'> +4.9709857e+02 </wgt>
<wgt id='86'> +5.1087022e+02 </wgt>
<wgt id='87'> +5.0698340e+02 </wgt>
<wgt id='88'> +4.9893240e+02 </wgt>
<wgt id='89'> +4.9384180e+02 </wgt>
<wgt id='90'> +5.0714615e+02 </wgt>
<wgt id='91'> +4.9572108e+02 </wgt>
<wgt id='92'> +4.6890290e+02 </wgt>
<wgt id='93'> +5.0460090e+02 </wgt>
<wgt id='94'> +4.8372752e+02 </wgt>
<wgt id='95'> +5.1255065e+02 </wgt>
<wgt id='96'> +5.3055903e+02 </wgt>
<wgt id='97'> +4.8820331e+02 </wgt>
<wgt id='98'> +5.0550083e+02 </wgt>
<wgt id='99'> +4.6667121e+02 </wgt>
<wgt id='100'> +4.4989757e+02 </wgt>
<wgt id='101'> +5.6522394e+02 </wgt>
<wgt id='102'> +5.3322382e+02 </wgt>
<wgt id='103'> +5.2666268e+02 </wgt>
<wgt id='104'> +5.1450675e+02 </wgt>
<wgt id='105'> +5.2091923e+02 </wgt>
<wgt id='106'> +4.7159103e+02 </wgt>
<wgt id='107'> +4.8164755e+02 </wgt>
<wgt id='108'> +4.5558546e+02 </wgt>
<wgt id='109'> +4.8585860e+02 </wgt>
<wgt id='110'> +4.9376497e+02 </wgt>
<wgt id='111'> +4.9330621e+02 </wgt>
<wgt id='112'> +4.9189248e+02 </wgt>
<wgt id='113'> +4.8458284e+02 </wgt>
<wgt id='114'> +5.0351910e+02 </wgt>
<wgt id='115'> +4.7078131e+02 </wgt>
<wgt id='116'> +5.2921471e+02 </wgt>
<wgt id='117'> +4.9494603e+02 </wgt>
<wgt id='118'> +5.2747991e+02 </wgt>
<wgt id='119'> +5.1005287e+02 </wgt>
<wgt id='120'> +4.9692065e+02 </wgt>
<wgt id='121'> +5.0198885e+02 </wgt>
<wgt id='122'> +4.9968997e+02 </wgt>
<wgt id='123'> +5.0060448e+02 </wgt>
<wgt id='124'> +5.6072267e+02 </wgt>
<wgt id='125'> +5.7749938e+02 </wgt>
<wgt id='126'> +5.1153581e+02 </wgt>
<wgt id='127'> +5.0871731e+02 </wgt>
<wgt id='128'> +4.6392415e+02 </wgt>
<wgt id='129'> +5.5004265e+02 </wgt>
<wgt id='130'> +4.9021685e+02 </wgt>
<wgt id='131'> +5.0824503e+02 </wgt>
<wgt id='132'> +5.4234678e+02 </wgt>
<wgt id='133'> +5.2772989e+02 </wgt>
<wgt id='134'> +5.0424340e+02 </wgt>
<wgt id='135'> +5.0366873e+02 </wgt>
<wgt id='136'> +5.4699354e+02 </wgt>
<wgt id='137'> +4.9257912e+02 </wgt>
<wgt id='138'> +4.8368230e+02 </wgt>
<wgt id='139'> +5.2041492e+02 </wgt>
<wgt id='140'> +5.0940645e+02 </wgt>
<wgt id='141'> +5.2489020e+02 </wgt>
<wgt id='142'> +4.4749136e+02 </wgt>
<wgt id='143'> +5.1924814e+02 </wgt>
<wgt id='144'> +4.8704276e+02 </wgt>
<wgt id='145'> +4.9076681e+02 </wgt>
</rwgt>
</event>
<event>
 4      1 +5.0481800e+02 1.90171300e+02 7.54677100e-03 1.15830700e-01
       21 -1    0    0  501  502 +0.0000000000e+00 +0.0000000000e+00 +2.4369300260e+02 2.4369300260e+02 0.0000000000e+00 0.0000e+00 1.0000e+00
       21 -1    0    0  502  503 -0.0000000000e+00 -0.0000000000e+00 -2.4058512897e+02 2.4058512897e+02 0.0000000000e+00 0.0000e+00 -1.0000e+00
        6  1    1    2  501    0 +7.8325211644e+01 +1.0063608408e+01 +1.5143629959e+02 2.4310094164e+02 1.7300000000e+02 0.0000e+00 1.0000e+00
       -6  1    1    2    0  503 -7.8325211644e+01 -1.0063608408e+01 -1.4832842597e+02 2.4117718993e+02 1.7300000000e+02 0.0000e+00 -1.0000e+00
<mgrwt>
<rscale>  2 0.19017128E+03</rscale>
<asrwt>0</asrwt>
<pdfrwt beam="1">  1       21 0.37491231E-01 0.19017128E+03</pdfrwt>
<pdfrwt beam="2">  1       21 0.37013097E-01 0.19017128E+03</pdfrwt>
<totfact> 0.48361675E+04</totfact>
</mgrwt>
<rwgt>
<wgt id='1'> +6.5271006e+02 </wgt>
<wgt id='2'> +6.1150068e+02 </wgt>
<wgt id='3'> +5.0481800e+02 </wgt>
<wgt id='4'> +6.5271006e+02 </wgt>
<wgt id='5'> +4.6332976e+02 </wgt>
<wgt id='6'> +6.1985594e+02 </wgt>
<wgt id='7'> +5.7775462e+02 </wgt>
<wgt id='8'> +4.7122041e+02 </wgt>
<wgt id='9'> +6.1985594e+02 </wgt>
<wgt id='10'> +4.3242002e+02 </wgt>
<wgt id='11'> +5.7860213e+02 </wgt>
<wgt id='12'> +5.3920105e+02 </wgt>
<wgt id='13'> +4.3986473e+02 </wgt>
<wgt id='14'> +5.7860213e+02 </wgt>
<wgt id='15'> +4.0373951e+02 </wgt>
<wgt id='16'> +5.3157478e+02 </wgt>
<wgt id='17'> +5.0265563e+02 </wgt>
<wgt id='18'> +4.2485207e+02 </wgt>
<wgt id='19'> +5.3157478e+02 </wgt>
<wgt id='20'> +3.9194249e+02 </wgt>
<wgt id='21'> +4.7491625e+02 </wgt>
<wgt id='22'> +3.9657652e+02 </wgt>
<wgt id='23'> +5.0481800e+02 </wgt>
<wgt id='24'> +3.6579516e+02 </wgt>
<wgt id='25'> +4.7122041e+02 </wgt>
<wgt id='26'> +4.4322509e+02 </wgt>
<wgt id='27'> +3.7018776e+02 </wgt>
<wgt id='28'> +4.7122041e+02 </wgt>
<wgt id='29'> +3.4153358e+02 </wgt>
<wgt id='30'> +4.4737043e+02 </wgt>
<wgt id='31'> +4.2461123e+02 </wgt>
<wgt id='32'> +3.6251387e+02 </wgt>
<wgt id='33'> +4.4737043e+02 </wgt>
<wgt id='34'> +3.3586513e+02 </wgt>
<wgt id='35'> +4.2485207e+02 </wgt>
<wgt id='36'> +4.0117879e+02 </wgt>
<wgt id='37'> +3.3838716e+02 </wgt>
<wgt id='38'> +4.2485207e+02 </wgt>
<wgt id='39'> +3.1345884e+02 </wgt>
<wgt id='40'> +3.9657652e+02 </wgt>
<wgt id='41'> +3.7440813e+02 </wgt>
<wgt id='42'> +3.1587040e+02 </wgt>
<wgt id='43'> +3.9657652e+02 </wgt>
<wgt id='44'> +2.9266849e+02 </wgt>
<wgt id='45'> +5.0481800e+02 </wgt>
<wgt id='46'> +5.0552840e+02 </wgt>
<wgt id='47'> +5.2429201e+02 </wgt>
<wgt id='48'> +5.0717169e+02 </wgt>
<wgt id='49'> +5.0431670e+02 </wgt>
<wgt id='50'> +5.9424152e+02 </wgt>
<wgt id='51'> +4.9518480e+02 </wgt>
<wgt id='52'> +5.0204549e+02 </wgt>
<wgt id='53'> +5.1092437e+02 </wgt>
<wgt id='54'> +5.0748804e+02 </wgt>
<wgt id='55'> +4.4750577e+02 </wgt>
<wgt id='56'> +4.6825966e+02 </wgt>
<wgt id='57'> +4.8955947e+02 </wgt>
<wgt id='58'> +5.0782509e+02 </wgt>
<wgt id='59'> +4.9642024e+02 </wgt>
<wgt id='60'> +4.8342405e+02 </wgt>
<wgt id='61'> +4.9261738e+02 </wgt>
<wgt id='62'> +4.9872276e+02 </wgt>
<wgt id='63'> +5.0520089e+02 </wgt>
<wgt id='64'> +4.9933203e+02 </wgt>
<wgt id='65'> +6.0010256e+02 </wgt>
<wgt id='66'> +4.9265306e+02 </wgt>
<wgt id='67'> +5.0949390e+02 </wgt>
<wgt id='68'> +5.4170860e+02 </wgt>
<wgt id='69'> +4.9338939e+02 </wgt>
<wgt id='70'> +4.9576406e+02 </wgt>
<wgt id='71'> +5.1464085e+02 </wgt>
<wgt id='72'> +4.8765076e+02 </wgt>
<wgt id='73'> +4.9804581e+02 </wgt>
<wgt id='74'> +5.2064924e+02 </wgt>
<wgt id='75'> +5.1669686e+02 </wgt>
<wgt id='76'> +4.8847755e+02 </wgt>
<wgt id='77'> +4.8611957e+02 </wgt>
<wgt id='78'> +5.0544901e+02 </wgt>
<wgt id='79'> +4.8344961e+02 </wgt>
<wgt id='80'> +5.0056708e+02 </wgt>
<wgt id='81'> +4.9466450e+02 </wgt>
<wgt id='82'> +5.1966326e+02 </wgt>
<wgt id='83'> +5.1686637e+02 </wgt>
<wgt id='84'> +5.5744528e+02 </wgt>
<wgt id='85'> +5.3353645e+02 </wgt>
<wgt id='86'> +5.0207776e+02 </wgt>
<wgt id='87'> +5.0510435e+02 </wgt>
<wgt id='88'> +5.1488157e+02 </wgt>
<wgt id='89'> +5.1821506e+02 </wgt>
<wgt id='90'> +5.1053639e+02 </wgt>
<wgt id='91'> +5.3898128e+02 </wgt>
<wgt id='92'> +4.6067985e+02 </wgt>
<wgt id='93'> +4.9639135e+02 </wgt>
<wgt id='94'> +5.0178028e+02 </wgt>
<wgt id='95'> +4.8173483e+02 </wgt>
<wgt id='96'> +5.4904389e+02 </wgt>
<wgt id='97'> +5.1297206e+02 </wgt>
<wgt id='98'> +4.8029711e+02 </wgt>
<wgt id='99'> +4.9026235e+02 </wgt>
<wgt id='100'> +5.0064822e+02 </wgt>
<wgt id='101'> +5.3143836e+02 </wgt>
<wgt id='102'> +4.9015312e+02 </wgt>
<wgt id='103'> +5.5080199e+02 </wgt>
<wgt id='104'> +5.0449210e+02 </wgt>
<wgt id='105'> +5.2412208e+02 </wgt>
<wgt id='106'> +4.6125822e+02 </wgt>
<wgt id='107'> +4.9735551e+02 </wgt>
<wgt id='108'> +4.4956990e+02 </wgt>
<wgt id='109'> +4.7209290e+02 </wgt>
<wgt id='110'> +5.0564271e+02 </wgt>
<wgt id='111'> +4.9045193e+02 </wgt>
<wgt id='112'> +4.8046362e+02 </wgt>
<wgt id='113'> +4.6108662e+02 </wgt>
<wgt id='114'> +5.0195221e+02 </wgt>
<wgt id='115'> +5.0589493e+02 </wgt>
<wgt id='116'> +5.0527185e+02 </wgt>
<wgt id='117'> +5.1202659e+02 </wgt>
<wgt id='118'> +5.1882131e+02 </wgt>
<wgt id='119'> +4.8339344e+02 </wgt>
<wgt id='120'> +5.0286087e+02 </wgt>
<wgt id='121'> +4.8910190e+02 </wgt>
<wgt id='122'> +4.9767102e+02 </wgt>
<wgt id='123'> +5.1248176e+02 </wgt>
<wgt id='124'> +5.4049962e+02 </wgt>
<wgt id='125'> +5.4120513e+02 </wgt>
<wgt id='126'> +5.2603224e+02 </wgt>
<wgt id='127'> +5.2103970e+02 </wgt>
<wgt id='128'> +4.6787780e+02 </wgt>
<wgt id='129'> +5.7405151e+02 </wgt>
<wgt id='130'> +5.1039239e+02 </wgt>
<wgt id='131'> +5.4256498e+02 </wgt>
<wgt id='132'> +4.9778829e+02 </wgt>
<wgt id='133'> +5.0147236e+02 </wgt>
<wgt id='134'> +4.7301443e+02 </wgt>
<wgt id='135'> +5.1858873e+02 </wgt>
<wgt id='136'> +4.8141591e+02 </wgt>
<wgt id='137'> +4.7491829e+02 </wgt>
<wgt id='138'> +4.5918777e+02 </wgt>
<wgt id='139'> +5.1508815e+02 </wgt>
<wgt id='140'> +5.3787073e+02 </wgt>
<wgt id='141'> +5.0389070e+02 </wgt>
<wgt id='142'> +5.0916517e+02 </wgt>
<wgt id='143'> +4.9957895e+02 </wgt>
<wgt id='144'> +5.0388250e+02 </wgt>
<wgt id='145'> +5.0624069e+02 </wgt>
</rwgt>
</event>
<event>
 4      1 +5.0481800e+02 2.45115800e+02 7.54677100e-03 1.11643100e-01
       21 -1    0    0  503  502 +0.0000000000e+00 +0.0000000000e+00 +4.5468733415e+01 4.5468733415e+01 0.0000000000e+00 0.0000e+00 1.0000e+00
       21 -1    0    0  501  503 -0.0000000000e+00 -0.0000000000e+00 -1.3629907767e+03 1.3629907767e+03 0.0000000000e+00 0.0000e+00 1.0000e+00
        6  1    1    2  501    0 +5.2770089302e+01 +1.6543293528e+02 -5.3572264676e+02 5.8913537719e+02 1.7300000000e+02 0.0000e+00 1.0000e+00
       -6  1    1    2    0  502 -5.2770089302e+01 -1.6543293528e+02 -7.8179939655e+02 8.1932413296e+02 1.7300000000e+02 0.0000e+00 1.0000e+00
<mgrwt>
<rscale>  2 0.24511577E+03</rscale>
<asrwt>0</asrwt>
<pdfrwt beam="1">  1       21 0.69951903E-02 0.24511577E+03</pdfrwt>
<pdfrwt beam="2">  1       21 0.20969087E+00 0.24511577E+03</pdfrwt>
<totfact> 0.16991137E+04</totfact>
</mgrwt>
<rwgt>
<wgt id='1'> +6.7709290e+02 </wgt>
<wgt id='2'> +5.7445761e+02 </wgt>
<wgt id='3'> +5.0481800e+02 </wgt>
<wgt id='4'> +6.7709290e+02 </wgt>
<wgt id='5'> +5.0162257e+02 </wgt>
<wgt id='6'> +6.1148503e+02 </wgt>
<wgt id='7'> +5.1504583e+02 </wgt>
<wgt id='8'> +4.5295970e+02 </wgt>
<wgt id='9'> +6.1148504e+02 </wgt>
<wgt id='10'> +4.5012447e+02 </wgt>
<wgt id='11'> +5.4866917e+02 </wgt>
<wgt id='12'> +4.6300815e+02 </wgt>
<wgt id='13'> +4.0786797e+02 </wgt>
<wgt id='14'> +5.4866917e+02 </wgt>
<wgt id='15'> +4.0534979e+02 </wgt>
<wgt id='16'> +5.5898128e+02 </wgt>
<wgt id='17'> +4.8263173e+02 </wgt>
<wgt id='18'> +4.2714358e+02 </wgt>
<wgt id='19'> +5.5898128e+02 </wgt>
<wgt id='20'> +4.2457129e+02 </wgt>
<wgt id='21'> +4.3271681e+02 </wgt>
<wgt id='22'> +3.8326451e+02 </wgt>
<wgt id='23'> +5.0481800e+02 </wgt>
<wgt id='24'> +3.8098350e+02 </wgt>
<wgt id='25'> +4.5295969e+02 </wgt>
<wgt id='26'> +3.8899724e+02 </wgt>
<wgt id='27'> +3.4511088e+02 </wgt>
<wgt id='28'> +4.5295970e+02 </wgt>
<wgt id='29'> +3.4308640e+02 </wgt>
<wgt id='30'> +4.7297296e+02 </wgt>
<wgt id='31'> +4.1138910e+02 </wgt>
<wgt id='32'> +3.6610723e+02 </wgt>
<wgt id='33'> +4.7297296e+02 </wgt>
<wgt id='34'> +3.6399983e+02 </wgt>
<wgt id='35'> +4.2714358e+02 </wgt>
<wgt id='36'> +3.6884226e+02 </wgt>
<wgt id='37'> +3.2849823e+02 </wgt>
<wgt id='38'> +4.2714358e+02 </wgt>
<wgt id='39'> +3.2663050e+02 </wgt>
<wgt id='40'> +3.8326451e+02 </wgt>
<wgt id='41'> +3.3157626e+02 </wgt>
<wgt id='42'> +2.9579653e+02 </wgt>
<wgt id='43'> +3.8326451e+02 </wgt>
<wgt id='44'> +2.9413998e+02 </wgt>
<wgt id='45'> +5.0481800e+02 </wgt>
<wgt id='46'> +5.1730035e+02 </wgt>
<wgt id='47'> +5.2986552e+02 </wgt>
<wgt id='48'> +5.0353514e+02 </wgt>
<wgt id='49'> +4.6186226e+02 </wgt>
<wgt id='50'> +5.9086623e+02 </wgt>
<wgt id='51'> +4.7410192e+02 </wgt>
<wgt id='52'> +4.6356045e+02 </wgt>
<wgt id='53'> +5.1302348e+02 </wgt>
<wgt id='54'> +5.3726963e+02 </wgt>
<wgt id='55'> +5.7479094e+02 </wgt>
<wgt id='56'> +4.8623193e+02 </wgt>
<wgt id='57'> +5.3797428e+02 </wgt>
<wgt id='58'> +4.5318235e+02 </wgt>
<wgt id='59'> +5.4743927e+02 </wgt>
<wgt id='60'> +5.0041223e+02 </wgt>
<wgt id='61'> +4.3340749e+02 </wgt>
<wgt id='62'> +4.6023913e+02 </wgt>
<wgt id='63'> +5.3449035e+02 </wgt>
<wgt id='64'> +5.0614046e+02 </wgt>
<wgt id='65'> +4.5268106e+02 </wgt>
<wgt id='66'> +5.1391430e+02 </wgt>
<wgt id='67'> +5.0846156e+02 </wgt>
<wgt id='68'> +6.2596122e+02 </wgt>
<wgt id='69'> +5.5430175e+02 </wgt>
<wgt id='70'> +5.5712151e+02 </wgt>
<wgt id='71'> +4.6444355e+02 </wgt>
<wgt id='72'> +4.5639959e+02 </wgt>
<wgt id='73'> +4.5423406e+02 </wgt>
<wgt id='74'> +5.8875517e+02 </wgt>
<wgt id='75'> +5.5962005e+02 </wgt>
<wgt id='76'> +5.1972294e+02 </wgt>
<wgt id='77'> +4.7133670e+02 </wgt>
<wgt id='78'> +4.3144823e+02 </wgt>
<wgt id='79'> +5.4621069e+02 </wgt>
<wgt id='80'> +4.4114892e+02 </wgt>
<wgt id='81'> +5.2897923e+02 </wgt>
<wgt id='82'> +4.9903269e+02 </wgt>
<wgt id='83'> +4.9874670e+02 </wgt>
<wgt id='84'> +4.8801728e+02 </wgt>
<wgt id='85'> +4.5069776e+02 </wgt>
<wgt id='86'> +5.3489150e+02 </wgt>
<wgt id='87'> +4.9468134e+02 </wgt>
<wgt id='88'> +4.9605211e+02 </wgt>
<wgt id='89'> +4.1553655e+02 </wgt>
<wgt id='90'> +4.6175355e+02 </wgt>
<wgt id='91'> +4.3214540e+02 </wgt>
<wgt id='92'> +4.7516599e+02 </wgt>
<wgt id='93'> +5.1198676e+02 </wgt>
<wgt id='94'> +4.6120273e+02 </wgt>
<wgt id='95'> +5.3016086e+02 </wgt>
<wgt id='96'> +5.2842107e+02 </wgt>
<wgt id='97'> +4.5313852e+02 </wgt>
<wgt id='98'> +5.5255742e+02 </wgt>
<wgt id='99'> +4.1765081e+02 </wgt>
<wgt id='100'> +3.7803273e+02 </wgt>
<wgt id='101'> +5.8968184e+02 </wgt>
<wgt id='102'> +5.7054394e+02 </wgt>
<wgt id='103'> +4.7376005e+02 </wgt>
<wgt id='104'> +5.4556028e+02 </wgt>
<wgt id='105'> +5.1641503e+02 </wgt>
<wgt id='106'> +4.9553647e+02 </wgt>
<wgt id='107'> +4.9400304e+02 </wgt>
<wgt id='108'> +4.7482858e+02 </wgt>
<wgt id='109'> +5.0072170e+02 </wgt>
<wgt id='110'> +4.5699420e+02 </wgt>
<wgt id='111'> +4.8862419e+02 </wgt>
<wgt id='112'> +5.2869843e+02 </wgt>
<wgt id='113'> +5.4223287e+02 </wgt>
<wgt id='114'> +5.2424990e+02 </wgt>
<wgt id='115'> +4.6596392e+02 </wgt>
<wgt id='116'> +5.5722813e+02 </wgt>
<wgt id='117'> +4.9699280e+02 </wgt>
<wgt id='118'> +5.1619730e+02 </wgt>
<wgt id='119'> +5.5831360e+02 </wgt>
<wgt id='120'> +5.0484883e+02 </wgt>
<wgt id='121'> +4.9187785e+02 </wgt>
<wgt id='122'> +4.9151671e+02 </wgt>
<wgt id='123'> +4.7679581e+02 </wgt>
<wgt id='124'> +5.6774295e+02 </wgt>
<wgt id='125'> +6.4432190e+02 </wgt>
<wgt id='126'> +4.9137223e+02 </wgt>
<wgt id='127'> +4.7784486e+02 </wgt>
<wgt id='128'> +4.9211366e+02 </wgt>
<wgt id='129'> +5.0870460e+02 </wgt>
<wgt id='130'> +5.0243131e+02 </wgt>
<wgt id='131'> +4.5831322e+02 </wgt>
<wgt id='132'> +5.4947698e+02 </wgt>
<wgt id='133'> +5.5251404e+02 </wgt>
<wgt id='134'> +5.3532802e+02 </wgt>
<wgt id='135'> +4.8004751e+02 </wgt>
<wgt id='136'> +5.9871451e+02 </wgt>
<wgt id='137'> +5.3943688e+02 </wgt>
<wgt id='138'> +5.2209229e+02 </wgt>
<wgt id='139'> +5.2030412e+02 </wgt>
<wgt id='140'> +4.9137361e+02 </wgt>
<wgt id='141'> +5.8505796e+02 </wgt>
<wgt id='142'> +3.3982066e+02 </wgt>
<wgt id='143'> +5.1566759e+02 </wgt>
<wgt id='144'> +4.5491896e+02 </wgt>
<wgt id='145'> +4.6218840e+02 </wgt>
</rwgt>
</event>
<event>
 4      1 +5.0481800e+02 1.77299600e+02 7.54677100e-03 1.17044200e-01
       21 -1    0    0  501  502 +0.0000000000e+00 +0.0000000000e+00 +9.3471002191e+01 9.3471002191e+01 0.0000000000e+00 0.0000e+00 -1.0000e+00
       21 -1    0    0  502  503 -0.0000000000e+00 -0.0000000000e+00 -3.8902999139e+02 3.8902999139e+02 0.0000000000e+00 0.0000e+00 -1.0000e+00
        6  1    1    2  501    0 +3.2179792298e+01 +2.1693856300e+01 -5.8968355934e+01 1.8684868058e+02 1.7300000000e+02 0.0000e+00 1.0000e+00
       -6  1    1    2    0  503 -3.2179792298e+01 -2.1693856300e+01 -2.3659063327e+02 2.9565231300e+02 1.7300000000e+02 0.0000e+00 1.0000e+00
<mgrwt>
<rscale>  2 0.17729964E+03</rscale>
<asrwt>0</asrwt>
<pdfrwt beam="1">  1       21 0.14380154E-01 0.17729964E+03</pdfrwt>
<pdfrwt beam="2">  1       21 0.59850767E-01 0.17729964E+03</pdfrwt>
<totfact> 0.11097173E+05</totfact>
</mgrwt>
<rwgt>
<wgt id='1'> +6.4451107e+02 </wgt>
<wgt id='2'> +6.8409406e+02 </wgt>
<wgt id='3'> +5.0481800e+02 </wgt>
<wgt id='4'> +6.4451107e+02 </wgt>
<wgt id='5'> +4.9244433e+02 </wgt>
<wgt id='6'> +6.2189023e+02 </wgt>
<wgt id='7'> +6.6212500e+02 </wgt>
<wgt id='8'> +4.7742186e+02 </wgt>
<wgt id='9'> +6.2189023e+02 </wgt>
<wgt id='10'> +4.6531916e+02 </wgt>
<wgt id='11'> +5.8814067e+02 </wgt>
<wgt id='12'> +6.2836412e+02 </wgt>
<wgt id='13'> +4.5054342e+02 </wgt>
<wgt id='14'> +5.8814067e+02 </wgt>
<wgt id='15'> +4.3908717e+02 </wgt>
<wgt id='16'> +5.2318041e+02 </wgt>
<wgt id='17'> +5.5174736e+02 </wgt>
<wgt id='18'> +4.2394280e+02 </wgt>
<wgt id='19'> +5.2318041e+02 </wgt>
<wgt id='20'> +4.1447061e+02 </wgt>
<wgt id='21'> +5.3402850e+02 </wgt>
<wgt id='22'> +4.0093571e+02 </wgt>
<wgt id='23'> +5.0481800e+02 </wgt>
<wgt id='24'> +3.9164045e+02 </wgt>
<wgt id='25'> +4.7742186e+02 </wgt>
<wgt id='26'> +5.0679908e+02 </wgt>
<wgt id='27'> +3.7836337e+02 </wgt>
<wgt id='28'> +4.7742186e+02 </wgt>
<wgt id='29'> +3.6956203e+02 </wgt>
<wgt id='30'> +4.3936344e+02 </wgt>
<wgt id='31'> +4.6031448e+02 </wgt>
<wgt id='32'> +3.6127601e+02 </wgt>
<wgt id='33'> +4.3936344e+02 </wgt>
<wgt id='34'> +3.5367317e+02 </wgt>
<wgt id='35'> +4.2394280e+02 </wgt>
<wgt id='36'> +4.4553190e+02 </wgt>
<wgt id='37'> +3.4166980e+02 </wgt>
<wgt id='38'> +4.2394280e+02 </wgt>
<wgt id='39'> +3.3419190e+02 </wgt>
<wgt id='40'> +4.0093571e+02 </wgt>
<wgt id='41'> +4.2281481e+02 </wgt>
<wgt id='42'> +3.2243408e+02 </wgt>
<wgt id='43'> +4.0093571e+02 </wgt>
<wgt id='44'> +3.1535210e+02 </wgt>
<wgt id='45'> +5.0481800e+02 </wgt>
<wgt id='46'> +5.0511512e+02 </wgt>
<wgt id='47'> +5.1992821e+02 </wgt>
<wgt id='48'> +5.0535139e+02 </wgt>
<wgt id='49'> +5.0309680e+02 </wgt>
<wgt id='50'> +5.8207989e+02 </wgt>
<wgt id='51'> +4.9509881e+02 </wgt>
<wgt id='52'> +5.0296884e+02 </wgt>
<wgt id='53'> +5.0860738e+02 </wgt>
<wgt id='54'> +5.0799014e+02 </wgt>
<wgt id='55'> +4.5855099e+02 </wgt>
<wgt id='56'> +4.7080183e+02 </wgt>
<wgt id='57'> +4.9502901e+02 </wgt>
<wgt id='58'> +5.0845573e+02 </wgt>
<wgt id='59'> +5.0170550e+02 </wgt>
<wgt id='60'> +4.8867184e+02 </wgt>
<wgt id='61'> +4.8610810e+02 </wgt>
<wgt id='62'> +4.9771389e+02 </wgt>
<wgt id='63'> +5.0530145e+02 </wgt>
<wgt id='64'> +5.0034874e+02 </wgt>
<wgt id='65'> +5.8422448e+02 </wgt>
<wgt id='66'> +4.9313114e+02 </wgt>
<wgt id='67'> +5.0903191e+02 </wgt>
<wgt id='68'> +5.4053515e+02 </wgt>
<wgt id='69'> +4.9108737e+02 </wgt>
<wgt id='70'> +4.9735897e+02 </wgt>
<wgt id='71'> +5.1400077e+02 </wgt>
<wgt id='72'> +4.9516130e+02 </wgt>
<wgt id='73'> +4.9845852e+02 </wgt>
<wgt id='74'> +5.1970763e+02 </wgt>
<wgt id='75'> +5.1448426e+02 </wgt>
<wgt id='76'> +4.9287251e+02 </wgt>
<wgt id='77'> +4.8810082e+02 </wgt>
<wgt id='78'> +5.0283838e+02 </wgt>
<wgt id='79'> +4.8669606e+02 </wgt>
<wgt id='80'> +5.0000255e+02 </wgt>
<wgt id='81'> +4.9656979e+02 </wgt>
<wgt id='82'> +5.1509409e+02 </wgt>
<wgt id='83'> +5.1223855e+02 </wgt>
<wgt id='84'> +5.4865951e+02 </wgt>
<wgt id='85'> +5.2707318e+02 </wgt>
<wgt id='86'> +5.0096467e+02 </wgt>
<wgt id='87'> +5.0505652e+02 </wgt>
<wgt id='88'> +5.1052956e+02 </wgt>
<wgt id='89'> +5.1565509e+02 </wgt>
<wgt id='90'> +5.1163419e+02 </wgt>
<wgt id='91'> +5.3327426e+02 </wgt>
<wgt id='92'> +4.6986806e+02 </wgt>
<wgt id='93'> +4.9655956e+02 </wgt>
<wgt id='94'> +5.0219126e+02 </wgt>
<wgt id='95'> +4.8855372e+02 </wgt>
<wgt id='96'> +5.3998693e+02 </wgt>
<wgt id='97'> +5.1121616e+02 </wgt>
<wgt id='98'> +4.8380410e+02 </wgt>
<wgt id='99'> +4.9012991e+02 </wgt>
<wgt id='100'> +4.9993741e+02 </wgt>
<wgt id='101'> +5.3082266e+02 </wgt>
<wgt id='102'> +4.9250694e+02 </wgt>
<wgt id='103'> +5.4501601e+02 </wgt>
<wgt id='104'> +5.0286579e+02 </wgt>
<wgt id='105'> +5.2533839e+02 </wgt>
<wgt id='106'> +4.6830154e+02 </wgt>
<wgt id='107'> +4.9887984e+02 </wgt>
<wgt id='108'> +4.5532703e+02 </wgt>
<wgt id='109'> +4.7722219e+02 </wgt>
<wgt id='110'> +5.0630526e+02 </wgt>
<wgt id='111'> +4.9293583e+02 </wgt>
<wgt id='112'> +4.8246264e+02 </wgt>
<wgt id='113'> +4.6684146e+02 </wgt>
<wgt id='114'> +5.0387644e+02 </wgt>
<wgt id='115'> +5.0120809e+02 </wgt>
<wgt id='116'> +5.0417321e+02 </wgt>
<wgt id='117'> +5.0913647e+02 </wgt>
<wgt id='118'> +5.1673416e+02 </wgt>
<wgt id='119'> +4.8809231e+02 </wgt>
<wgt id='120'> +4.9976542e+02 </wgt>
<wgt id='121'> +4.9349122e+02 </wgt>
<wgt id='122'> +4.9920006e+02 </wgt>
<wgt id='123'> +5.0902061e+02 </wgt>
<wgt id='124'> +5.3820987e+02 </wgt>
<wgt id='125'> +5.4005500e+02 </wgt>
<wgt id='126'> +5.2126262e+02 </wgt>
<wgt id='127'> +5.1819735e+02 </wgt>
<wgt id='128'> +4.6810548e+02 </wgt>
<wgt id='129'> +5.6802956e+02 </wgt>
<wgt id='130'> +5.0498332e+02 </wgt>
<wgt id='131'> +5.3740145e+02 </wgt>
<wgt id='132'> +5.0493962e+02 </wgt>
<wgt id='133'> +5.0245159e+02 </wgt>
<wgt id='134'> +4.7886586e+02 </wgt>
<wgt id='135'> +5.1666793e+02 </wgt>
<wgt id='136'> +4.9062665e+02 </wgt>
<wgt id='137'> +4.7607787e+02 </wgt>
<wgt id='138'> +4.5900560e+02 </wgt>
<wgt id='139'> +5.1460559e+02 </wgt>
<wgt id='140'> +5.3351522e+02 </wgt>
<wgt id='141'> +5.0413760e+02 </wgt>
<wgt id='142'> +5.0506005e+02 </wgt>
<wgt id='143'> +5.0344945e+02 </wgt>
<wgt id='144'> +5.0526587e+02 </wgt>
<wgt id='145'> +5.0552443e+02 </wgt>
</rwgt>
</event>
<event>
 4      1 +5.0481800e+02 2.15422000e+02 7.54677100e-03 1.13734300e-01
       -2 -1    0    0    0  501 -0.0000000000e+00 +0.0000000000e+00 +5.3028055248e+01 5.3028055248e+01 0.0000000000e+00 0.0000e+00 -1.0000e+00
        2 -1    0    0  502    0 +0.0000000000e+00 -0.0000000000e+00 -8.7799969937e+02 8.7799969937e+02 0.0000000000e+00 0.0000e+00 1.0000e+00
        6  1    1    2  502    0 +1.5371306981e+01 -1.2744156224e+02 -3.8588856668e+02 4.4194639353e+02 1.7300000000e+02 0.0000e+00 1.0000e+00
       -6  1    1    2    0  501 -1.5371306981e+01 +1.2744156224e+02 -4.3908307744e+02 4.8908136108e+02 1.7300000000e+02 0.0000e+00 1.0000e+00
<mgrwt>
<rscale>  2 0.21542198E+03</rscale>
<asrwt>0</asrwt>
<pdfrwt beam="2">  1        2 0.13507688E+00 0.21542198E+03</pdfrwt>
<pdfrwt beam="1">  1       -2 0.81581623E-02 0.21542198E+03</pdfrwt>
<totfact> 0.28621479E+03</totfact>
</mgrwt>
<rwgt>
<wgt id='1'> +6.0525355e+02 </wgt>
<wgt id='2'> +5.6494712e+02 </wgt>
<wgt id='3'> +5.0481800e+02 </wgt>
<wgt id='4'> +6.0525355e+02 </wgt>
<wgt id='5'> +5.0462477e+02 </wgt>
<wgt id='6'> +6.1572909e+02 </wgt>
<wgt id='7'> +5.7316840e+02 </wgt>
<wgt id='8'> +5.0996077e+02 </wgt>
<wgt id='9'> +6.1572909e+02 </wgt>
<wgt id='10'> +5.0975806e+02 </wgt>
<wgt id='11'> +6.2200175e+02 </wgt>
<wgt id='12'> +5.7776502e+02 </wgt>
<wgt id='13'> +5.1234623e+02 </wgt>
<wgt id='14'> +6.2200175e+02 </wgt>
<wgt id='15'> +5.1213682e+02 </wgt>
<wgt id='16'> +4.9622941e+02 </wgt>
<wgt id='17'> +4.6930776e+02 </wgt>
<wgt id='18'> +4.2606438e+02 </wgt>
<wgt id='19'> +4.9622942e+02 </wgt>
<wgt id='20'> +4.2591436e+02 </wgt>
<wgt id='21'> +4.7613727e+02 </wgt>
<wgt id='22'> +4.3040485e+02 </wgt>
<wgt id='23'> +5.0481800e+02 </wgt>
<wgt id='24'> +4.3024697e+02 </wgt>
<wgt id='25'> +5.0996076e+02 </wgt>
<wgt id='26'> +4.7995574e+02 </wgt>
<wgt id='27'> +4.3241817e+02 </wgt>
<wgt id='28'> +5.0996077e+02 </wgt>
<wgt id='29'> +4.3225470e+02 </wgt>
<wgt id='30'> +4.1881564e+02 </wgt>
<wgt id='31'> +3.9805332e+02 </wgt>
<wgt id='32'> +3.6436319e+02 </wgt>
<wgt id='33'> +4.1881565e+02 </wgt>
<wgt id='34'> +3.6424536e+02 </wgt>
<wgt id='35'> +4.2606438e+02 </wgt>
<wgt id='36'> +4.0384591e+02 </wgt>
<wgt id='37'> +3.6807509e+02 </wgt>
<wgt id='38'> +4.2606438e+02 </wgt>
<wgt id='39'> +3.6795065e+02 </wgt>
<wgt id='40'> +4.3040485e+02 </wgt>
<wgt id='41'> +4.0708462e+02 </wgt>
<wgt id='42'> +3.6979685e+02 </wgt>
<wgt id='43'> +4.3040485e+02 </wgt>
<wgt id='44'> +3.6966767e+02 </wgt>
<wgt id='45'> +5.0481800e+02 </wgt>
<wgt id='46'> +5.0282892e+02 </wgt>
<wgt id='47'> +4.8826486e+02 </wgt>
<wgt id='48'> +4.9708254e+02 </wgt>
<wgt id='49'> +4.9980502e+02 </wgt>
<wgt id='50'> +4.6215295e+02 </wgt>
<wgt id='51'> +5.1470214e+02 </wgt>
<wgt id='52'> +4.9336796e+02 </wgt>
<wgt id='53'> +5.1964671e+02 </wgt>
<wgt id='54'> +4.9525763e+02 </wgt>
<wgt id='55'> +4.8715793e+02 </wgt>
<wgt id='56'> +5.4117711e+02 </wgt>
<wgt id='57'> +4.9563966e+02 </wgt>
<wgt id='58'> +5.2099337e+02 </wgt>
<wgt id='59'> +4.7668240e+02 </wgt>
<wgt id='60'> +5.0497717e+02 </wgt>
<wgt id='61'> +5.5820972e+02 </wgt>
<wgt id='62'> +5.2494249e+02 </wgt>
<wgt id='63'> +5.0478901e+02 </wgt>
<wgt id='64'> +5.0191613e+02 </wgt>
<wgt id='65'> +5.0213261e+02 </wgt>
<wgt id='66'> +5.2496157e+02 </wgt>
<wgt id='67'> +5.1181611e+02 </wgt>
<wgt id='68'> +4.2339726e+02 </wgt>
<wgt id='69'> +4.7481829e+02 </wgt>
<wgt id='70'> +4.8942648e+02 </wgt>
<wgt id='71'> +5.2098635e+02 </wgt>
<wgt id='72'> +5.2905178e+02 </wgt>
<wgt id='73'> +5.1786286e+02 </wgt>
<wgt id='74'> +4.5234506e+02 </wgt>
<wgt id='75'> +4.7685605e+02 </wgt>
<wgt id='76'> +5.2701391e+02 </wgt>
<wgt id='77'> +5.2395178e+02 </wgt>
<wgt id='78'> +5.3631216e+02 </wgt>
<wgt id='79'> +5.0889743e+02 </wgt>
<wgt id='80'> +5.4889480e+02 </wgt>
<wgt id='81'> +5.0767251e+02 </wgt>
<wgt id='82'> +5.0627470e+02 </wgt>
<wgt id='83'> +4.8965496e+02 </wgt>
<wgt id='84'> +5.0127688e+02 </wgt>
<wgt id='85'> +5.0270769e+02 </wgt>
<wgt id='86'> +4.9664227e+02 </wgt>
<wgt id='87'> +5.0837852e+02 </wgt>
<wgt id='88'> +5.0914980e+02 </wgt>
<wgt id='89'> +5.0440517e+02 </wgt>
<wgt id='90'> +5.3965654e+02 </wgt>
<wgt id='91'> +4.8254985e+02 </wgt>
<wgt id='92'> +5.4092432e+02 </wgt>
<wgt id='93'> +4.8852150e+02 </wgt>
<wgt id='94'> +5.0793509e+02 </wgt>
<wgt id='95'> +5.0168804e+02 </wgt>
<wgt id='96'> +4.8845245e+02 </wgt>
<wgt id='97'> +5.2566848e+02 </wgt>
<wgt id='98'> +5.1249668e+02 </wgt>
<wgt id='99'> +5.2843886e+02 </wgt>
<wgt id='100'> +5.5807825e+02 </wgt>
<wgt id='101'> +4.3696465e+02 </wgt>
<wgt id='102'> +4.6655468e+02 </wgt>
<wgt id='103'> +4.8025382e+02 </wgt>
<wgt id='104'> +4.9032792e+02 </wgt>
<wgt id='105'> +5.0321373e+02 </wgt>
<wgt id='106'> +5.4115871e+02 </wgt>
<wgt id='107'> +5.0421956e+02 </wgt>
<wgt id='108'> +5.6681964e+02 </wgt>
<wgt id='109'> +5.3056379e+02 </wgt>
<wgt id='110'> +5.2517584e+02 </wgt>
<wgt id='111'> +5.3221127e+02 </wgt>
<wgt id='112'> +5.2155476e+02 </wgt>
<wgt id='113'> +5.0783985e+02 </wgt>
<wgt id='114'> +5.1172117e+02 </wgt>
<wgt id='115'> +5.3790397e+02 </wgt>
<wgt id='116'> +4.7942889e+02 </wgt>
<wgt id='117'> +5.0638583e+02 </wgt>
<wgt id='118'> +4.7012958e+02 </wgt>
<wgt id='119'> +5.0333056e+02 </wgt>
<wgt id='120'> +5.0481733e+02 </wgt>
<wgt id='121'> +5.0818752e+02 </wgt>
<wgt id='122'> +5.2039470e+02 </wgt>
<wgt id='123'> +5.4215592e+02 </wgt>
<wgt id='124'> +4.6563694e+02 </wgt>
<wgt id='125'> +4.3564178e+02 </wgt>
<wgt id='126'> +4.9927820e+02 </wgt>
<wgt id='127'> +4.9441229e+02 </wgt>
<wgt id='128'> +5.2159371e+02 </wgt>
<wgt id='129'> +4.7083829e+02 </wgt>
<wgt id='130'> +4.9856689e+02 </wgt>
<wgt id='131'> +4.9550656e+02 </wgt>
<wgt id='132'> +4.6943695e+02 </wgt>
<wgt id='133'> +4.8456815e+02 </wgt>
<wgt id='134'> +4.9667803e+02 </wgt>
<wgt id='135'> +4.9827994e+02 </wgt>
<wgt id='136'> +4.7868587e+02 </wgt>
<wgt id='137'> +5.2390368e+02 </wgt>
<wgt id='138'> +5.1604131e+02 </wgt>
<wgt id='139'> +4.8749593e+02 </wgt>
<wgt id='140'> +4.9563593e+02 </wgt>
<wgt id='141'> +4.7884750e+02 </wgt>
<wgt id='142'> +5.6696283e+02 </wgt>
<wgt id='143'> +5.2045457e+02 </wgt>
<wgt id='144'> +5.4208527e+02 </wgt>
<wgt id='145'> +5.1813076e+02 </wgt>
</rwgt>
</event>
<event>
 4      1 +5.0481800e+02 1.91876400e+02 7.54677100e-03 1.15678000e-01
       21 -1    0    0  501  502 +0.0000000000e+00 +0.0000000000e+00 +4.6858912573e+02 4.6858912573e+02 0.0000000000e+00 0.0000e+00 -1.0000e+00
       21 -1    0    0  502  503 -0.0000000000e+00 -0.0000000000e+00 -8.0601400880e+01 8.0601400880e+01 0.0000000000e+00 0.0000e+00 1.0000e+00
        6  1    1    2  501    0 -5.6469948636e+01 -6.0816982397e+01 +2.3759829790e+02 3.0540057565e+02 1.7300000000e+02 0.0000e+00 -1.0000e+00
       -6  1    1    2    0  503 +5.6469948636e+01 +6.0816982397e+01 +1.5038942695e+02 2.4378995095e+02 1.7300000000e+02 0.0000e+00 1.0000e+00
<mgrwt>
<rscale>  2 0.19187642E+03</rscale>
<asrwt>0</asrwt>
<pdfrwt beam="1">  1       21 0.72090633E-01 0.19187642E+03</pdfrwt>
<pdfrwt beam="2">  1       21 0.12400216E-01 0.19187642E+03</pdfrwt>
<totfact> 0.96103123E+04</totfact>
</mgrwt>
<rwgt>
<wgt id='1'> +6.4535513e+02 </wgt>
<wgt id='2'> +6.1556163e+02 </wgt>
<wgt id='3'> +5.0481800e+02 </wgt>
<wgt id='4'> +6.4535513e+02 </wgt>
<wgt id='5'> +5.0260686e+02 </wgt>
<wgt id='6'> +6.1959252e+02 </wgt>
<wgt id='7'> +5.8850902e+02 </wgt>
<wgt id='8'> +4.7570924e+02 </wgt>
<wgt id='9'> +6.1959252e+02 </wgt>
<wgt id='10'> +4.7357469e+02 </wgt>
<wgt id='11'> +5.8386564e+02 </wgt>
<wgt id='12'> +5.5433970e+02 </wgt>
<wgt id='13'> +4.4778336e+02 </wgt>
<wgt id='14'> +5.8386564e+02 </wgt>
<wgt id='15'> +4.4577004e+02 </wgt>
<wgt id='16'> +5.2580830e+02 </wgt>
<wgt id='17'> +5.0508316e+02 </wgt>
<wgt id='18'> +4.2495932e+02 </wgt>
<wgt id='19'> +5.2580830e+02 </wgt>
<wgt id='20'> +4.2324702e+02 </wgt>
<wgt id='21'> +4.8288585e+02 </wgt>
<wgt id='22'> +4.0045536e+02 </wgt>
<wgt id='23'> +5.0481800e+02 </wgt>
<wgt id='24'> +3.9879892e+02 </wgt>
<wgt id='25'> +4.7570924e+02 </wgt>
<wgt id='26'> +4.5484909e+02 </wgt>
<wgt id='27'> +3.7694716e+02 </wgt>
<wgt id='28'> +4.7570924e+02 </wgt>
<wgt id='29'> +3.7538453e+02 </wgt>
<wgt id='30'> +4.4262910e+02 </wgt>
<wgt id='31'> +4.2640108e+02 </wgt>
<wgt id='32'> +3.6266407e+02 </wgt>
<wgt id='33'> +4.4262910e+02 </wgt>
<wgt id='34'> +3.6128631e+02 </wgt>
<wgt id='35'> +4.2495932e+02 </wgt>
<wgt id='36'> +4.0766168e+02 </wgt>
<wgt id='37'> +3.4175217e+02 </wgt>
<wgt id='38'> +4.2495932e+02 </wgt>
<wgt id='39'> +3.4041727e+02 </wgt>
<wgt id='40'> +4.0045536e+02 </wgt>
<wgt id='41'> +3.8399250e+02 </wgt>
<wgt id='42'> +3.2169006e+02 </wgt>
<wgt id='43'> +4.0045536e+02 </wgt>
<wgt id='44'> +3.2043060e+02 </wgt>
<wgt id='45'> +5.0481800e+02 </wgt>
<wgt id='46'> +5.0821975e+02 </wgt>
<wgt id='47'> +5.1960426e+02 </wgt>
<wgt id='48'> +5.0646977e+02 </wgt>
<wgt id='49'> +5.0148956e+02 </wgt>
<wgt id='50'> +5.8546890e+02 </wgt>
<wgt id='51'> +4.9462411e+02 </wgt>
<wgt id='52'> +5.0362741e+02 </wgt>
<wgt id='53'> +5.0526077e+02 </wgt>
<wgt id='54'> +5.0914450e+02 </wgt>
<wgt id='55'> +4.6508846e+02 </wgt>
<wgt id='56'> +4.6852672e+02 </wgt>
<wgt id='57'> +4.9865873e+02 </wgt>
<wgt id='58'> +5.0477402e+02 </wgt>
<wgt id='59'> +5.0839323e+02 </wgt>
<wgt id='60'> +4.9414871e+02 </wgt>
<wgt id='61'> +4.7187527e+02 </wgt>
<wgt id='62'> +4.9725815e+02 </wgt>
<wgt id='63'> +5.0572139e+02 </wgt>
<wgt id='64'> +4.9869771e+02 </wgt>
<wgt id='65'> +5.7514402e+02 </wgt>
<wgt id='66'> +4.9417315e+02 </wgt>
<wgt id='67'> +5.0865012e+02 </wgt>
<wgt id='68'> +5.4484197e+02 </wgt>
<wgt id='69'> +4.9469926e+02 </wgt>
<wgt id='70'> +4.9785733e+02 </wgt>
<wgt id='71'> +5.1279348e+02 </wgt>
<wgt id='72'> +4.9297366e+02 </wgt>
<wgt id='73'> +4.9620437e+02 </wgt>
<wgt id='74'> +5.2348721e+02 </wgt>
<wgt id='75'> +5.1477579e+02 </wgt>
<wgt id='76'> +4.9477873e+02 </wgt>
<wgt id='77'> +4.9072926e+02 </wgt>
<wgt id='78'> +4.9700957e+02 </wgt>
<wgt id='79'> +4.9082051e+02 </wgt>
<wgt id='80'> +4.9745306e+02 </wgt>
<wgt id='81'> +4.9646294e+02 </wgt>
<wgt id='82'> +5.0968669e+02 </wgt>
<wgt id='83'> +5.1141490e+02 </wgt>
<wgt id='84'> +5.4554779e+02 </wgt>
<wgt id='85'> +5.2285386e+02 </wgt>
<wgt id='86'> +5.0272341e+02 </wgt>
<wgt id='87'> +5.0609958e+02 </wgt>
<wgt id='88'> +5.0896666e+02 </wgt>
<wgt id='89'> +5.1451503e+02 </wgt>
<wgt id='90'> +5.1276872e+02 </wgt>
<wgt id='91'> +5.2810979e+02 </wgt>
<wgt id='92'> +4.6848572e+02 </wgt>
<wgt id='93'> +4.9850458e+02 </wgt>
<wgt id='94'> +4.9924360e+02 </wgt>
<wgt id='95'> +4.9177462e+02 </wgt>
<wgt id='96'> +5.3920632e+02 </wgt>
<wgt id='97'> +5.0763969e+02 </wgt>
<wgt id='98'> +4.8690462e+02 </wgt>
<wgt id='99'> +4.8741356e+02 </wgt>
<wgt id='100'> +4.9198268e+02 </wgt>
<wgt id='101'> +5.3794951e+02 </wgt>
<wgt id='102'> +5.0035177e+02 </wgt>
<wgt id='103'> +5.4388428e+02 </wgt>
<wgt id='104'> +5.0445339e+02 </wgt>
<wgt id='105'> +5.2384410e+02 </wgt>
<wgt id='106'> +4.6707831e+02 </wgt>
<wgt id='107'> +4.9399176e+02 </wgt>
<wgt id='108'> +4.5343880e+02 </wgt>
<wgt id='109'> +4.7728808e+02 </wgt>
<wgt id='110'> +5.0478776e+02 </wgt>
<wgt id='111'> +4.9256777e+02 </wgt>
<wgt id='112'> +4.8132826e+02 </wgt>
<wgt id='113'> +4.6806440e+02 </wgt>
<wgt id='114'> +5.0073166e+02 </wgt>
<wgt id='115'> +4.9385438e+02 </wgt>
<wgt id='116'> +5.0918735e+02 </wgt>
<wgt id='117'> +5.0582802e+02 </wgt>
<wgt id='118'> +5.2012865e+02 </wgt>
<wgt id='119'> +4.8985211e+02 </wgt>
<wgt id='120'> +4.9684010e+02 </wgt>
<wgt id='121'> +4.9445100e+02 </wgt>
<wgt id='122'> +4.9955449e+02 </wgt>
<wgt id='123'> +5.0839021e+02 </wgt>
<wgt id='124'> +5.4328084e+02 </wgt>
<wgt id='125'> +5.4597152e+02 </wgt>
<wgt id='126'> +5.2058869e+02 </wgt>
<wgt id='127'> +5.1789540e+02 </wgt>
<wgt id='128'> +4.6562266e+02 </wgt>
<wgt id='129'> +5.6610061e+02 </wgt>
<wgt id='130'> +5.0255878e+02 </wgt>
<wgt id='131'> +5.3333673e+02 </wgt>
<wgt id='132'> +5.1267793e+02 </wgt>
<wgt id='133'> +5.0719442e+02 </wgt>
<wgt id='134'> +4.8317766e+02 </wgt>
<wgt id='135'> +5.1504067e+02 </wgt>
<wgt id='136'> +4.9987817e+02 </wgt>
<wgt id='137'> +4.7867428e+02 </wgt>
<wgt id='138'> +4.6378137e+02 </wgt>
<wgt id='139'> +5.1615221e+02 </wgt>
<wgt id='140'> +5.2882438e+02 </wgt>
<wgt id='141'> +5.0641562e+02 </wgt>
<wgt id='142'> +4.9571212e+02 </wgt>
<wgt id='143'> +5.0727937e+02 </wgt>
<wgt id='144'> +5.0253472e+02 </wgt>
<wgt id='145'> +5.0450631e+02 </wgt>
</rwgt>
</event>
<event>
 4      1 +5.0481800e+02 1.94999800e+02 7.54677100e-03 1.15402800e-01
       21 -1    0    0  503  502 +0.0000000000e+00 +0.0000000000e+00 +9.7784815449e+02 9.7784815449e+02 0.0000000000e+00 0.0000e+00 1.0000e+00
       21 -1    0    0  501  503 -0.0000000000e+00 -0.0000000000e+00 -3.8952903896e+01 3.8952903896e+01 0.0000000000e+00 0.0000e+00 1.0000e+00
        6  1    1    2  501    0 -8.7918974641e+01 +1.9135576230e+01 +4.4842822915e+02 4.8899160839e+02 1.7300000000e+02 0.0000e+00 1.0000e+00
       -6  1    1    2    0  502 +8.7918974641e+01 -1.9135576230e+01 +4.9046702145e+02 5.2780945000e+02 1.7300000000e+02 0.0000e+00 1.0000e+00
<mgrwt>
<rscale>  2 0.19499979E+03</rscale>
<asrwt>0</asrwt>
<pdfrwt beam="1">  1       21 0.15043816E+00 0.19499979E+03</pdfrwt>
<pdfrwt beam="2">  1       21 0.59927552E-02 0.19499979E+03</pdfrwt>
<totfact> 0.58532820E+04</totfact>
</mgrwt>
<rwgt>
<wgt id='1'> +6.5781611e+02 </wgt>
<wgt id='2'> +6.6260492e+02 </wgt>
<wgt id='3'> +5.0481800e+02 </wgt>
<wgt id='4'> +6.5781612e+02 </wgt>
<wgt id='5'> +5.0465801e+02 </wgt>
<wgt id='6'> +6.1910305e+02 </wgt>
<wgt id='7'> +6.2391247e+02 </wgt>
<wgt id='8'> +4.6708186e+02 </wgt>
<wgt id='9'> +6.1910306e+02 </wgt>
<wgt id='10'> +4.6693166e+02 </wgt>
<wgt id='11'> +5.7282388e+02 </wgt>
<wgt id='12'> +5.7734284e+02 </wgt>
<wgt id='13'> +4.3226932e+02 </wgt>
<wgt id='14'> +5.7282389e+02 </wgt>
<wgt id='15'> +4.3213071e+02 </wgt>
<wgt id='16'> +5.3638471e+02 </wgt>
<wgt id='17'> +5.3980346e+02 </wgt>
<wgt id='18'> +4.2514723e+02 </wgt>
<wgt id='19'> +5.3638472e+02 </wgt>
<wgt id='20'> +4.2502206e+02 </wgt>
<wgt id='21'> +5.0828193e+02 </wgt>
<wgt id='22'> +3.9336664e+02 </wgt>
<wgt id='23'> +5.0481800e+02 </wgt>
<wgt id='24'> +3.9324900e+02 </wgt>
<wgt id='25'> +4.6708186e+02 </wgt>
<wgt id='26'> +4.7034311e+02 </wgt>
<wgt id='27'> +3.6404824e+02 </wgt>
<wgt id='28'> +4.6708186e+02 </wgt>
<wgt id='29'> +3.6393970e+02 </wgt>
<wgt id='30'> +4.5173206e+02 </wgt>
<wgt id='31'> +4.5438107e+02 </wgt>
<wgt id='32'> +3.6293053e+02 </wgt>
<wgt id='33'> +4.5173206e+02 </wgt>
<wgt id='34'> +3.6282929e+02 </wgt>
<wgt id='35'> +4.2514723e+02 </wgt>
<wgt id='36'> +4.2784774e+02 </wgt>
<wgt id='37'> +3.3580076e+02 </wgt>
<wgt id='38'> +4.2514723e+02 </wgt>
<wgt id='39'> +3.3570553e+02 </wgt>
<wgt id='40'> +3.9336664e+02 </wgt>
<wgt id='41'> +3.9591263e+02 </wgt>
<wgt id='42'> +3.1077286e+02 </wgt>
<wgt id='43'> +3.9336664e+02 </wgt>
<wgt id='44'> +3.1068501e+02 </wgt>
<wgt id='45'> +5.0481800e+02 </wgt>
<wgt id='46'> +5.1852631e+02 </wgt>
<wgt id='47'> +5.1526601e+02 </wgt>
<wgt id='48'> +5.0500691e+02 </wgt>
<wgt id='49'> +4.8187994e+02 </wgt>
<wgt id='50'> +5.8837663e+02 </wgt>
<wgt id='51'> +4.8405249e+02 </wgt>
<wgt id='52'> +4.9243204e+02 </wgt>
<wgt id='53'> +4.9762168e+02 </wgt>
<wgt id='54'> +5.2548426e+02 </wgt>
<wgt id='55'> +5.2649891e+02 </wgt>
<wgt id='56'> +4.7258439e+02 </wgt>
<wgt id='57'> +5.2603099e+02 </wgt>
<wgt id='58'> +4.7737582e+02 </wgt>
<wgt id='59'> +5.4197005e+02 </wgt>
<wgt id='60'> +5.1200047e+02 </wgt>
<wgt id='61'> +4.4980257e+02 </wgt>
<wgt id='62'> +4.8185262e+02 </wgt>
<wgt id='63'> +5.1921160e+02 </wgt>
<wgt id='64'> +5.0221212e+02 </wgt>
<wgt id='65'> +5.0294637e+02 </wgt>
<wgt id='66'> +5.0267121e+02 </wgt>
<wgt id='67'> +5.0653649e+02 </wgt>
<wgt id='68'> +5.7767968e+02 </wgt>
<wgt id='69'> +5.1959400e+02 </wgt>
<wgt id='70'> +5.1626583e+02 </wgt>
<wgt id='71'> +4.9107593e+02 </wgt>
<wgt id='72'> +4.8160001e+02 </wgt>
<wgt id='73'> +4.7367036e+02 </wgt>
<wgt id='74'> +5.5209658e+02 </wgt>
<wgt id='75'> +5.2617295e+02 </wgt>
<wgt id='76'> +5.1161671e+02 </wgt>
<wgt id='77'> +4.9122528e+02 </wgt>
<wgt id='78'> +4.5810636e+02 </wgt>
<wgt id='79'> +5.2026352e+02 </wgt>
<wgt id='80'> +4.7119548e+02 </wgt>
<wgt id='81'> +5.0726300e+02 </wgt>
<wgt id='82'> +4.8740970e+02 </wgt>
<wgt id='83'> +4.9988485e+02 </wgt>
<wgt id='84'> +5.1241742e+02 </wgt>
<wgt id='85'> +4.8351868e+02 </wgt>
<wgt id='86'> +5.1574470e+02 </wgt>
<wgt id='87'> +5.0501804e+02 </wgt>
<wgt id='88'> +4.9459388e+02 </wgt>
<wgt id='89'> +4.7618390e+02 </wgt>
<wgt id='90'> +4.9782468e+02 </wgt>
<wgt id='91'> +4.7781531e+02 </wgt>
<wgt id='92'> +4.7149469e+02 </wgt>
<wgt id='93'> +5.0668412e+02 </wgt>
<wgt id='94'> +4.7690457e+02 </wgt>
<wgt id='95'> +5.2086720e+02 </wgt>
<wgt id='96'> +5.2710279e+02 </wgt>
<wgt id='97'> +4.7834755e+02 </wgt>
<wgt id='98'> +5.1634771e+02 </wgt>
<wgt id='99'> +4.5448868e+02 </wgt>
<wgt id='100'> +4.2994846e+02 </wgt>
<wgt id='101'> +5.7304106e+02 </wgt>
<wgt id='102'> +5.4554812e+02 </wgt>
<wgt id='103'> +5.1267130e+02 </wgt>
<wgt id='104'> +5.2138957e+02 </wgt>
<wgt id='105'> +5.1947517e+02 </wgt>
<wgt id='106'> +4.7846223e+02 </wgt>
<wgt id='107'> +4.8202864e+02 </wgt>
<wgt id='108'> +4.6197795e+02 </wgt>
<wgt id='109'> +4.9187713e+02 </wgt>
<wgt id='110'> +4.8579300e+02 </wgt>
<wgt id='111'> +4.9341306e+02 </wgt>
<wgt id='112'> +5.0340449e+02 </wgt>
<wgt id='113'> +4.9847753e+02 </wgt>
<wgt id='114'> +5.1003558e+02 </wgt>
<wgt id='115'> +4.6602326e+02 </wgt>
<wgt id='116'> +5.3705971e+02 </wgt>
<wgt id='117'> +4.9301223e+02 </wgt>
<wgt id='118'> +5.2611347e+02 </wgt>
<wgt id='119'> +5.2394501e+02 </wgt>
<wgt id='120'> +5.0005603e+02 </wgt>
<wgt id='121'> +5.0336927e+02 </wgt>
<wgt id='122'> +4.9868444e+02 </wgt>
<wgt id='123'> +4.9486293e+02 </wgt>
<wgt id='124'> +5.6375642e+02 </wgt>
<wgt id='125'> +5.9293002e+02 </wgt>
<wgt id='126'> +5.0560749e+02 </wgt>
<wgt id='127'> +5.0087527e+02 </wgt>
<wgt id='128'> +4.7011425e+02 </wgt>
<wgt id='129'> +5.3784752e+02 </wgt>
<wgt id='130'> +4.8525944e+02 </wgt>
<wgt id='131'> +4.9350937e+02 </wgt>
<wgt id='132'> +5.4900573e+02 </wgt>
<wgt id='133'> +5.3568606e+02 </wgt>
<wgt id='134'> +5.1401075e+02 </wgt>
<wgt id='135'> +4.9671179e+02 </wgt>
<wgt id='136'> +5.6563311e+02 </wgt>
<wgt id='137'> +5.0249489e+02 </wgt>
<wgt id='138'> +4.9428385e+02 </wgt>
<wgt id='139'> +5.2055690e+02 </wgt>
<wgt id='140'> +5.0205964e+02 </wgt>
<wgt id='141'> +5.3768938e+02 </wgt>
<wgt id='142'> +4.1968146e+02 </wgt>
<wgt id='143'> +5.2058244e+02 </wgt>
<wgt id='144'> +4.7863462e+02 </wgt>
<wgt id='145'> +4.8210103e+02 </wgt>
</rwgt>
</event>
<event>
 4      1 +5.0481800e+02 1.80248100e+02 7.54677100e-03 1.16756300e-01
       21 -1    0    0  503  502 +0.0000000000e+00 +0.0000000000e+00 +7.0283327107e+02 7.0283327107e+02 0.0000000000e+00 0.0000e+00 -1.0000e+00
       21 -1    0    0  501  503 -0.0000000000e+00 -0.0000000000e+00 -4.6665031770e+01 4.6665031770e+01 0.0000000000e+00 0.0000e+00 -1.0000e+00
        6  1    1    2  501    0 +2.1010208970e+01 -4.6031851495e+01 +3.6442199162e+02 4.0656210868e+02 1.7300000000e+02 0.0000e+00 -1.0000e+00
       -6  1    1    2    0  502 -2.1010208970e+01 +4.6031851495e+01 +2.9174624767e+02 3.4293619416e+02 1.7300000000e+02 0.0000e+00 -1.0000e+00
<mgrwt>
<rscale>  2 0.18024805E+03</rscale>
<asrwt>0</asrwt>
<pdfrwt beam="1">  1       21 0.10812819E+00 0.18024805E+03</pdfrwt>
<pdfrwt beam="2">  1       21 0.71792362E-02 0.18024805E+03</pdfrwt>
<totfact> 0.99089054E+04</totfact>
</mgrwt>
<rwgt>
<wgt id='1'> +6.4839452e+02 </wgt>
<wgt id='2'> +7.6989274e+02 </wgt>
<wgt id='3'> +5.0481800e+02 </wgt>
<wgt id='4'> +6.4839451e+02 </wgt>
<wgt id='5'> +5.0398324e+02 </wgt>
<wgt id='6'> +6.2138829e+02 </wgt>
<wgt id='7'> +7.4298027e+02 </wgt>
<wgt id='8'> +4.7434854e+02 </wgt>
<wgt id='9'> +6.2138829e+02 </wgt>
<wgt id='10'> +4.7353592e+02 </wgt>
<wgt id='11'> +5.8388296e+02 </wgt>
<wgt id='12'> +7.0671285e+02 </wgt>
<wgt id='13'> +4.4495915e+02 </wgt>
<wgt id='14'> +5.8388295e+02 </wgt>
<wgt id='15'> +4.4419526e+02 </wgt>
<wgt id='16'> +5.2675795e+02 </wgt>
<wgt id='17'> +6.1516224e+02 </wgt>
<wgt id='18'> +4.2416855e+02 </wgt>
<wgt id='19'> +5.2675795e+02 </wgt>
<wgt id='20'> +4.2353027e+02 </wgt>
<wgt id='21'> +5.9365855e+02 </wgt>
<wgt id='22'> +3.9856687e+02 </wgt>
<wgt id='23'> +5.0481800e+02 </wgt>
<wgt id='24'> +3.9794339e+02 </wgt>
<wgt id='25'> +4.7434854e+02 </wgt>
<wgt id='26'> +5.6468003e+02 </wgt>
<wgt id='27'> +3.7387271e+02 </wgt>
<wgt id='28'> +4.7434854e+02 </wgt>
<wgt id='29'> +3.7328650e+02 </wgt>
<wgt id='30'> +4.4260339e+02 </wgt>
<wgt id='31'> +5.0606117e+02 </wgt>
<wgt id='32'> +3.6157771e+02 </wgt>
<wgt id='33'> +4.4260338e+02 </wgt>
<wgt id='34'> +3.6106477e+02 </wgt>
<wgt id='35'> +4.2416855e+02 </wgt>
<wgt id='36'> +4.8837123e+02 </wgt>
<wgt id='37'> +3.3975385e+02 </wgt>
<wgt id='38'> +4.2416855e+02 </wgt>
<wgt id='39'> +3.3925164e+02 </wgt>
<wgt id='40'> +3.9856687e+02 </wgt>
<wgt id='41'> +4.6453215e+02 </wgt>
<wgt id='42'> +3.1870359e+02 </wgt>
<wgt id='43'> +3.9856687e+02 </wgt>
<wgt id='44'> +3.1823134e+02 </wgt>
<wgt id='45'> +5.0481800e+02 </wgt>
<wgt id='46'> +5.1466707e+02 </wgt>
<wgt id='47'> +5.1597998e+02 </wgt>
<wgt id='48'> +5.0609040e+02 </wgt>
<wgt id='49'> +4.9481258e+02 </wgt>
<wgt id='50'> +5.8684500e+02 </wgt>
<wgt id='51'> +4.9138370e+02 </wgt>
<wgt id='52'> +5.0272484e+02 </wgt>
<wgt id='53'> +4.9765592e+02 </wgt>
<wgt id='54'> +5.1497486e+02 </wgt>
<wgt id='55'> +4.9080012e+02 </wgt>
<wgt id='56'> +4.6687032e+02 </wgt>
<wgt id='57'> +5.1161223e+02 </wgt>
<wgt id='58'> +4.9412080e+02 </wgt>
<wgt id='59'> +5.2700203e+02 </wgt>
<wgt id='60'> +5.0794811e+02 </wgt>
<wgt id='61'> +4.4520175e+02 </wgt>
<wgt id='62'> +4.9297718e+02 </wgt>
<wgt id='63'> +5.0938445e+02 </wgt>
<wgt id='64'> +4.9861832e+02 </wgt>
<wgt id='65'> +5.4172314e+02 </wgt>
<wgt id='66'> +4.9722382e+02 </wgt>
<wgt id='67'> +5.0715827e+02 </wgt>
<wgt id='68'> +5.5598025e+02 </wgt>
<wgt id='69'> +5.0306240e+02 </wgt>
<wgt id='70'> +5.0229997e+02 </wgt>
<wgt id='71'> +5.0584625e+02 </wgt>
<wgt id='72'> +4.9045649e+02 </wgt>
<wgt id='73'> +4.8821404e+02 </wgt>
<wgt id='74'> +5.3431156e+02 </wgt>
<wgt id='75'> +5.1605624e+02 </wgt>
<wgt id='76'> +5.0227904e+02 </wgt>
<wgt id='77'> +4.9527840e+02 </wgt>
<wgt id='78'> +4.7964320e+02 </wgt>
<wgt id='79'> +5.0365264e+02 </wgt>
<wgt id='80'> +4.8856090e+02 </wgt>
<wgt id='81'> +4.9875831e+02 </wgt>
<wgt id='82'> +4.9484953e+02 </wgt>
<wgt id='83'> +5.0564308e+02 </wgt>
<wgt id='84'> +5.3091294e+02 </wgt>
<wgt id='85'> +5.0683733e+02 </wgt>
<wgt id='86'> +5.0738320e+02 </wgt>
<wgt id='87'> +5.0748367e+02 </wgt>
<wgt id='88'> +5.0221257e+02 </wgt>
<wgt id='89'> +5.0452885e+02 </wgt>
<wgt id='90'> +5.1175086e+02 </wgt>
<wgt id='91'> +5.0828320e+02 </wgt>
<wgt id='92'> +4.6927632e+02 </wgt>
<wgt id='93'> +5.0307594e+02 </wgt>
<wgt id='94'> +4.8982134e+02 </wgt>
<wgt id='95'> +5.0526246e+02 </wgt>
<wgt id='96'> +5.3213891e+02 </wgt>
<wgt id='97'> +4.9562576e+02 </wgt>
<wgt id='98'> +4.9846160e+02 </wgt>
<wgt id='99'> +4.7661317e+02 </wgt>
<wgt id='100'> +4.6714435e+02 </wgt>
<wgt id='101'> +5.5555278e+02 </wgt>
<wgt id='102'> +5.2178229e+02 </wgt>
<wgt id='103'> +5.3416173e+02 </wgt>
<wgt id='104'> +5.0926973e+02 </wgt>
<wgt id='105'> +5.2147143e+02 </wgt>
<wgt id='106'> +4.6943714e+02 </wgt>
<wgt id='107'> +4.8483568e+02 </wgt>
<wgt id='108'> +4.5424883e+02 </wgt>
<wgt id='109'> +4.8269221e+02 </wgt>
<wgt id='110'> +4.9938989e+02 </wgt>
<wgt id='111'> +4.9307463e+02 </wgt>
<wgt id='112'> +4.8560779e+02 </wgt>
<wgt id='113'> +4.7766321e+02 </wgt>
<wgt id='114'> +4.9994500e+02 </wgt>
<wgt id='115'> +4.7647897e+02 </wgt>
<wgt id='116'> +5.2171410e+02 </wgt>
<wgt id='117'> +4.9745615e+02 </wgt>
<wgt id='118'> +5.2577511e+02 </wgt>
<wgt id='119'> +5.0126114e+02 </wgt>
<wgt id='120'> +4.9424713e+02 </wgt>
<wgt id='121'> +5.0015251e+02 </wgt>
<wgt id='122'> +4.9995337e+02 </wgt>
<wgt id='123'> +5.0355620e+02 </wgt>
<wgt id='124'> +5.5432625e+02 </wgt>
<wgt id='125'> +5.6393680e+02 </wgt>
<wgt id='126'> +5.1517466e+02 </wgt>
<wgt id='127'> +5.1307897e+02 </wgt>
<wgt id='128'> +4.6250751e+02 </wgt>
<wgt id='129'> +5.5572227e+02 </wgt>
<wgt id='130'> +4.9515707e+02 </wgt>
<wgt id='131'> +5.1824118e+02 </wgt>
<wgt id='132'> +5.3387630e+02 </wgt>
<wgt id='133'> +5.2037566e+02 </wgt>
<wgt id='134'> +4.9735358e+02 </wgt>
<wgt id='135'> +5.0844483e+02 </wgt>
<wgt id='136'> +5.3061698e+02 </wgt>
<wgt id='137'> +4.8675616e+02 </wgt>
<wgt id='138'> +4.7613682e+02 </wgt>
<wgt id='139'> +5.1949963e+02 </wgt>
<wgt id='140'> +5.1528765e+02 </wgt>
<wgt id='141'> +5.1619898e+02 </wgt>
<wgt id='142'> +4.6941697e+02 </wgt>
<wgt id='143'> +5.1667252e+02 </wgt>
<wgt id='144'> +4.9390642e+02 </wgt>
<wgt id='145'> +4.9676631e+02 </wgt>
</rwgt>
</event>
<event>
 4      1 +5.0481800e+02 3.02572700e+02 7.54677100e-03 1.08396200e-01
       21 -1    0    0  503  502 +0.0000000000e+00 +0.0000000000e+00 +5.0521620574e+02 5.0521620574e+02 0.0000000000e+00 0.0000e+00 1.0000e+00
       21 -1    0    0  501  503 -0.0000000000e+00 -0.0000000000e+00 -1.8134767600e+02 1.8134767600e+02 0.0000000000e+00 0.0000e+00 -1.0000e+00
        6  1    1    2  501    0 -2.3684272544e+02 +7.4342066409e+01 +1.5247509914e+02 3.3881982717e+02 1.7300000000e+02 0.0000e+00 1.0000e+00
       -6  1    1    2    0  502 +2.3684272544e+02 -7.4342066409e+01 +1.7139343060e+02 3.4774405456e+02 1.7300000000e+02 0.0000e+00 -1.0000e+00
<mgrwt>
<rscale>  2 0.30257267E+03</rscale>
<asrwt>0</asrwt>
<pdfrwt beam="1">  1       21 0.77725569E-01 0.30257267E+03</pdfrwt>
<pdfrwt beam="2">  1       21 0.27899643E-01 0.30257267E+03</pdfrwt>
<totfact> 0.17021702E+04</totfact>
</mgrwt>
<rwgt>
<wgt id='1'> +6.5735247e+02 </wgt>
<wgt id='2'> +5.1449093e+02 </wgt>
<wgt id='3'> +5.0481800e+02 </wgt>
<wgt id='4'> +6.5735247e+02 </wgt>
<wgt id='5'> +5.0474728e+02 </wgt>
<wgt id='6'> +6.0495328e+02 </wgt>
<wgt id='7'> +4.7245968e+02 </wgt>
<wgt id='8'> +4.6363975e+02 </wgt>
<wgt id='9'> +6.0495328e+02 </wgt>
<wgt id='10'> +4.6357527e+02 </wgt>
<wgt id='11'> +5.5560694e+02 </wgt>
<wgt id='12'> +4.3475554e+02 </wgt>
<wgt id='13'> +4.2671125e+02 </wgt>
<wgt id='14'> +5.5560694e+02 </wgt>
<wgt id='15'> +4.2665244e+02 </wgt>
<wgt id='16'> +5.4854378e+02 </wgt>
<wgt id='17'> +4.3670096e+02 </wgt>
<wgt id='18'> +4.2891316e+02 </wgt>
<wgt id='19'> +5.4854378e+02 </wgt>
<wgt id='20'> +4.2885618e+02 </wgt>
<wgt id='21'> +4.0102475e+02 </wgt>
<wgt id='22'> +3.9392650e+02 </wgt>
<wgt id='23'> +5.0481800e+02 </wgt>
<wgt id='24'> +3.9387457e+02 </wgt>
<wgt id='25'> +4.6363975e+02 </wgt>
<wgt id='26'> +3.6902139e+02 </wgt>
<wgt id='27'> +3.6255060e+02 </wgt>
<wgt id='28'> +4.6363975e+02 </wgt>
<wgt id='29'> +3.6250326e+02 </wgt>
<wgt id='30'> +4.6606429e+02 </wgt>
<wgt id='31'> +3.7530464e+02 </wgt>
<wgt id='32'> +3.6892526e+02 </wgt>
<wgt id='33'> +4.6606430e+02 </wgt>
<wgt id='34'> +3.6887855e+02 </wgt>
<wgt id='35'> +4.2891316e+02 </wgt>
<wgt id='36'> +3.4464419e+02 </wgt>
<wgt id='37'> +3.3883185e+02 </wgt>
<wgt id='38'> +4.2891316e+02 </wgt>
<wgt id='39'> +3.3878929e+02 </wgt>
<wgt id='40'> +3.9392650e+02 </wgt>
<wgt id='41'> +3.1714023e+02 </wgt>
<wgt id='42'> +3.1184419e+02 </wgt>
<wgt id='43'> +3.9392650e+02 </wgt>
<wgt id='44'> +3.1180542e+02 </wgt>
<wgt id='45'> +5.0481800e+02 </wgt>
<wgt id='46'> +5.1565557e+02 </wgt>
<wgt id='47'> +5.2599599e+02 </wgt>
<wgt id='48'> +5.1162213e+02 </wgt>
<wgt id='49'> +4.9934772e+02 </wgt>
<wgt id='50'> +6.1163146e+02 </wgt>
<wgt id='51'> +4.9372542e+02 </wgt>
<wgt id='52'> +5.0308465e+02 </wgt>
<wgt id='53'> +5.0160764e+02 </wgt>
<wgt id='54'> +5.1062528e+02 </wgt>
<wgt id='55'> +4.6314567e+02 </wgt>
<wgt id='56'> +4.6007258e+02 </wgt>
<wgt id='57'> +4.9829416e+02 </wgt>
<wgt id='58'> +4.9506818e+02 </wgt>
<wgt id='59'> +5.1500506e+02 </wgt>
<wgt id='60'> +4.9748903e+02 </wgt>
<wgt id='61'> +4.5623404e+02 </wgt>
<wgt id='62'> +4.9756371e+02 </wgt>
<wgt id='63'> +5.0639344e+02 </wgt>
<wgt id='64'> +4.9261709e+02 </wgt>
<wgt id='65'> +5.7873596e+02 </wgt>
<wgt id='66'> +4.9636603e+02 </wgt>
<wgt id='67'> +5.0864125e+02 </wgt>
<wgt id='68'> +5.5611413e+02 </wgt>
<wgt id='69'> +5.0731887e+02 </wgt>
<wgt id='70'> +4.9704677e+02 </wgt>
<wgt id='71'> +5.1127543e+02 </wgt>
<wgt id='72'> +4.7645759e+02 </wgt>
<wgt id='73'> +4.9003428e+02 </wgt>
<wgt id='74'> +5.3334949e+02 </wgt>
<wgt id='75'> +5.1890676e+02 </wgt>
<wgt id='76'> +4.9262342e+02 </wgt>
<wgt id='77'> +4.9326905e+02 </wgt>
<wgt id='78'> +4.8788526e+02 </wgt>
<wgt id='79'> +4.9525316e+02 </wgt>
<wgt id='80'> +4.9283978e+02 </wgt>
<wgt id='81'> +4.9364881e+02 </wgt>
<wgt id='82'> +5.0520608e+02 </wgt>
<wgt id='83'> +5.1693728e+02 </wgt>
<wgt id='84'> +5.5188963e+02 </wgt>
<wgt id='85'> +5.2225164e+02 </wgt>
<wgt id='86'> +5.0870272e+02 </wgt>
<wgt id='87'> +5.0813915e+02 </wgt>
<wgt id='88'> +5.1283199e+02 </wgt>
<wgt id='89'> +5.1467853e+02 </wgt>
<wgt id='90'> +5.1308770e+02 </wgt>
<wgt id='91'> +5.2492425e+02 </wgt>
<wgt id='92'> +4.5229357e+02 </wgt>
<wgt id='93'> +5.0245654e+02 </wgt>
<wgt id='94'> +4.9206845e+02 </wgt>
<wgt id='95'> +4.8834461e+02 </wgt>
<wgt id='96'> +5.5115329e+02 </wgt>
<wgt id='97'> +5.0229207e+02 </wgt>
<wgt id='98'> +4.8968989e+02 </wgt>
<wgt id='99'> +4.8096331e+02 </wgt>
<wgt id='100'> +4.7534847e+02 </wgt>
<wgt id='101'> +5.5473837e+02 </wgt>
<wgt id='102'> +5.1471686e+02 </wgt>
<wgt id='103'> +5.4894057e+02 </wgt>
<wgt id='104'> +5.1126462e+02 </wgt>
<wgt id='105'> +5.1832284e+02 </wgt>
<wgt id='106'> +4.5406396e+02 </wgt>
<wgt id='107'> +4.8104995e+02 </wgt>
<wgt id='108'> +4.4140369e+02 </wgt>
<wgt id='109'> +4.6950372e+02 </wgt>
<wgt id='110'> +4.9971419e+02 </wgt>
<wgt id='111'> +4.8816380e+02 </wgt>
<wgt id='112'> +4.7597476e+02 </wgt>
<wgt id='113'> +4.6250450e+02 </wgt>
<wgt id='114'> +4.9052917e+02 </wgt>
<wgt id='115'> +4.8499865e+02 </wgt>
<wgt id='116'> +5.2236632e+02 </wgt>
<wgt id='117'> +5.0282444e+02 </wgt>
<wgt id='118'> +5.3049011e+02 </wgt>
<wgt id='119'> +4.8671006e+02 </wgt>
<wgt id='120'> +4.9367230e+02 </wgt>
<wgt id='121'> +4.8922565e+02 </wgt>
<wgt id='122'> +4.9771347e+02 </wgt>
<wgt id='123'> +5.1219060e+02 </wgt>
<wgt id='124'> +5.5774628e+02 </wgt>
<wgt id='125'> +5.6086541e+02 </wgt>
<wgt id='126'> +5.2582780e+02 </wgt>
<wgt id='127'> +5.2094943e+02 </wgt>
<wgt id='128'> +4.6091195e+02 </wgt>
<wgt id='129'> +5.6988196e+02 </wgt>
<wgt id='130'> +5.0652076e+02 </wgt>
<wgt id='131'> +5.3147886e+02 </wgt>
<wgt id='132'> +5.1863197e+02 </wgt>
<wgt id='133'> +5.1623081e+02 </wgt>
<wgt id='134'> +4.8426885e+02 </wgt>
<wgt id='135'> +5.1388422e+02 </wgt>
<wgt id='136'> +5.0615572e+02 </wgt>
<wgt id='137'> +4.8379535e+02 </wgt>
<wgt id='138'> +4.7625788e+02 </wgt>
<wgt id='139'> +5.1975052e+02 </wgt>
<wgt id='140'> +5.2435863e+02 </wgt>
<wgt id='141'> +5.1180283e+02 </wgt>
<wgt id='142'> +4.8176479e+02 </wgt>
<wgt id='143'> +5.0977025e+02 </wgt>
<wgt id='144'> +4.9408682e+02 </wgt>
<wgt id='145'> +5.0366336e+02 </wgt>
</rwgt>
</event>
<event>
 4      1 +5.0481800e+02 1.90055600e+02 7.54677100e-03 1.15841100e-01
        2 -1    0    0  502    0 +0.0000000000e+00 +0.0000000000e+00 +3.1478668443e+03 3.1478668443e+03 0.0000000000e+00 0.0000e+00 1.0000e+00
       -2 -1    0    0    0  501 -0.0000000000e+00 -0.0000000000e+00 -1.1480445711e+01 1.1480445711e+01 0.0000000000e+00 0.0000e+00 -1.0000e+00
        6  1    1    2  502    0 -6.3896638129e+01 +4.5927496545e+01 +1.6032505385e+03 1.6144762013e+03 1.7300000000e+02 0.0000e+00 1.0000e+00
       -6  1    1    2    0  501 +6.3896638129e+01 -4.5927496545e+01 +1.5331358601e+03 1.5448710887e+03 1.7300000000e+02 0.0000e+00 1.0000e+00
<mgrwt>
<rscale>  2 0.19005556E+03</rscale>
<asrwt>0</asrwt>
<pdfrwt beam="1">  1        2 0.48428652E+00 0.19005556E+03</pdfrwt>
<pdfrwt beam="2">  1       -2 0.17662249E-02 0.19005556E+03</pdfrwt>
<totfact> 0.15989718E+03</totfact>
</mgrwt>
<rwgt>
<wgt id='1'> +6.3548388e+02 </wgt>
<wgt id='2'> +6.7752776e+02 </wgt>
<wgt id='3'> +5.0481800e+02 </wgt>
<wgt id='4'> +6.3548388e+02 </wgt>
<wgt id='5'> +5.0477997e+02 </wgt>
<wgt id='6'> +6.1987374e+02 </wgt>
<wgt id='7'> +6.6169675e+02 </wgt>
<wgt id='8'> +4.9029630e+02 </wgt>
<wgt id='9'> +6.1987374e+02 </wgt>
<wgt id='10'> +4.9025868e+02 </wgt>
<wgt id='11'> +6.0204232e+02 </wgt>
<wgt id='12'> +6.4336637e+02 </wgt>
<wgt id='13'> +4.7459155e+02 </wgt>
<wgt id='14'> +6.0204232e+02 </wgt>
<wgt id='15'> +4.7455466e+02 </wgt>
<wgt id='16'> +5.1753072e+02 </wgt>
<wgt id='17'> +5.4740349e+02 </wgt>
<wgt id='18'> +4.2484469e+02 </wgt>
<wgt id='19'> +5.1753072e+02 </wgt>
<wgt id='20'> +4.2481568e+02 </wgt>
<wgt id='21'> +5.3461295e+02 </wgt>
<wgt id='22'> +4.1262352e+02 </wgt>
<wgt id='23'> +5.0481800e+02 </wgt>
<wgt id='24'> +4.1259476e+02 </wgt>
<wgt id='25'> +4.9029630e+02 </wgt>
<wgt id='26'> +5.1980305e+02 </wgt>
<wgt id='27'> +3.9940672e+02 </wgt>
<wgt id='28'> +4.9029630e+02 </wgt>
<wgt id='29'> +3.9937848e+02 </wgt>
<wgt id='30'> +4.3554346e+02 </wgt>
<wgt id='31'> +4.5775295e+02 </wgt>
<wgt id='32'> +3.6250357e+02 </wgt>
<wgt id='33'> +4.3554346e+02 </wgt>
<wgt id='34'> +3.6248043e+02 </wgt>
<wgt id='35'> +4.2484469e+02 </wgt>
<wgt id='36'> +4.4705717e+02 </wgt>
<wgt id='37'> +3.5207571e+02 </wgt>
<wgt id='38'> +4.2484469e+02 </wgt>
<wgt id='39'> +3.5205274e+02 </wgt>
<wgt id='40'> +4.1262352e+02 </wgt>
<wgt id='41'> +4.3467275e+02 </wgt>
<wgt id='42'> +3.4079833e+02 </wgt>
<wgt id='43'> +4.1262352e+02 </wgt>
<wgt id='44'> +3.4077576e+02 </wgt>
<wgt id='45'> +5.0481800e+02 </wgt>
<wgt id='46'> +5.1058639e+02 </wgt>
<wgt id='47'> +4.8629197e+02 </wgt>
<wgt id='48'> +4.8592318e+02 </wgt>
<wgt id='49'> +4.9857112e+02 </wgt>
<wgt id='50'> +4.3413781e+02 </wgt>
<wgt id='51'> +4.7761127e+02 </wgt>
<wgt id='52'> +4.8540495e+02 </wgt>
<wgt id='53'> +5.2741348e+02 </wgt>
<wgt id='54'> +5.1302153e+02 </wgt>
<wgt id='55'> +4.9352907e+02 </wgt>
<wgt id='56'> +5.0527462e+02 </wgt>
<wgt id='57'> +4.7762509e+02 </wgt>
<wgt id='58'> +5.4507813e+02 </wgt>
<wgt id='59'> +4.7455756e+02 </wgt>
<wgt id='60'> +5.2726609e+02 </wgt>
<wgt id='61'> +5.4981839e+02 </wgt>
<wgt id='62'> +5.0367306e+02 </wgt>
<wgt id='63'> +4.9998504e+02 </wgt>
<wgt id='64'> +4.9868229e+02 </wgt>
<wgt id='65'> +4.7200235e+02 </wgt>
<wgt id='66'> +4.9457630e+02 </wgt>
<wgt id='67'> +5.2026785e+02 </wgt>
<wgt id='68'> +4.6646600e+02 </wgt>
<wgt id='69'> +5.0995918e+02 </wgt>
<wgt id='70'> +5.2575772e+02 </wgt>
<wgt id='71'> +5.1420720e+02 </wgt>
<wgt id='72'> +5.5835830e+02 </wgt>
<wgt id='73'> +5.3532925e+02 </wgt>
<wgt id='74'> +4.6117606e+02 </wgt>
<wgt id='75'> +4.7921126e+02 </wgt>
<wgt id='76'> +5.3949870e+02 </wgt>
<wgt id='77'> +4.7501423e+02 </wgt>
<wgt id='78'> +5.2877755e+02 </wgt>
<wgt id='79'> +5.0464828e+02 </wgt>
<wgt id='80'> +5.3298141e+02 </wgt>
<wgt id='81'> +5.1363823e+02 </wgt>
<wgt id='82'> +5.2113962e+02 </wgt>
<wgt id='83'> +5.0938952e+02 </wgt>
<wgt id='84'> +4.8766061e+02 </wgt>
<wgt id='85'> +4.9636942e+02 </wgt>
<wgt id='86'> +5.1301098e+02 </wgt>
<wgt id='87'> +5.1180673e+02 </wgt>
<wgt id='88'> +5.0335737e+02 </wgt>
<wgt id='89'> +5.2789874e+02 </wgt>
<wgt id='90'> +5.2712045e+02 </wgt>
<wgt id='91'> +4.6220489e+02 </wgt>
<wgt id='92'> +5.3317202e+02 </wgt>
<wgt id='93'> +4.9013381e+02 </wgt>
<wgt id='94'> +5.3051768e+02 </wgt>
<wgt id='95'> +4.9327601e+02 </wgt>
<wgt id='96'> +4.8016729e+02 </wgt>
<wgt id='97'> +5.2987757e+02 </wgt>
<wgt id='98'> +5.1277859e+02 </wgt>
<wgt id='99'> +5.4644821e+02 </wgt>
<wgt id='100'> +4.9331515e+02 </wgt>
<wgt id='101'> +4.7018320e+02 </wgt>
<wgt id='102'> +4.9608770e+02 </wgt>
<wgt id='103'> +4.9599243e+02 </wgt>
<wgt id='104'> +5.0994919e+02 </wgt>
<wgt id='105'> +5.0563119e+02 </wgt>
<wgt id='106'> +5.5622273e+02 </wgt>
<wgt id='107'> +5.0471925e+02 </wgt>
<wgt id='108'> +5.2121665e+02 </wgt>
<wgt id='109'> +4.9624765e+02 </wgt>
<wgt id='110'> +5.3996306e+02 </wgt>
<wgt id='111'> +5.2084338e+02 </wgt>
<wgt id='112'> +5.0540281e+02 </wgt>
<wgt id='113'> +5.3006534e+02 </wgt>
<wgt id='114'> +5.0154281e+02 </wgt>
<wgt id='115'> +4.9561759e+02 </wgt>
<wgt id='116'> +4.5445443e+02 </wgt>
<wgt id='117'> +4.7580124e+02 </wgt>
<wgt id='118'> +5.0913170e+02 </wgt>
<wgt id='119'> +5.2881955e+02 </wgt>
<wgt id='120'> +5.0307060e+02 </wgt>
<wgt id='121'> +5.2595997e+02 </wgt>
<wgt id='122'> +5.0484354e+02 </wgt>
<wgt id='123'> +5.2007315e+02 </wgt>
<wgt id='124'> +4.4453753e+02 </wgt>
<wgt id='125'> +4.1134192e+02 </wgt>
<wgt id='126'> +5.1334634e+02 </wgt>
<wgt id='127'> +5.0375203e+02 </wgt>
<wgt id='128'> +4.9601171e+02 </wgt>
<wgt id='129'> +4.8065398e+02 </wgt>
<wgt id='130'> +4.9781413e+02 </wgt>
<wgt id='131'> +4.9930681e+02 </wgt>
<wgt id='132'> +5.0124818e+02 </wgt>
<wgt id='133'> +4.9779745e+02 </wgt>
<wgt id='134'> +4.9503653e+02 </wgt>
<wgt id='135'> +4.8541941e+02 </wgt>
<wgt id='136'> +5.3249061e+02 </wgt>
<wgt id='137'> +5.4794330e+02 </wgt>
<wgt id='138'> +5.1075051e+02 </wgt>
<wgt id='139'> +5.0398145e+02 </wgt>
<wgt id='140'> +5.0241662e+02 </wgt>
<wgt id='141'> +4.8324775e+02 </wgt>
<wgt id='142'> +5.4054096e+02 </wgt>
<wgt id='143'> +5.1336681e+02 </wgt>
<wgt id='144'> +5.2754942e+02 </wgt>
<wgt id='145'> +5.4033617e+02 </wgt>
</rwgt>
</event>
<event>
 4      1 +5.0481800e+02 2.41346000e+02 7.54677100e-03 1.11889900e-01
       21 -1    0    0  501  502 +0.0000000000e+00 +0.0000000000e+00 +4.7995022379e+01 4.7995022379e+01 0.0000000000e+00 0.0000e+00 1.0000e+00
       21 -1    0    0  502  503 -0.0000000000e+00 -0.0000000000e+00 -1.6975603388e+03 1.6975603388e+03 0.0000000000e+00 0.0000e+00 -1.0000e+00
        6  1    1    2  501    0 +1.6821666070e+02 +4.6947712991e+00 -3.5878323978e+02 4.3240409221e+02 1.7300000000e+02 0.0000e+00 1.0000e+00
       -6  1    1    2    0  503 -1.6821666070e+02 -4.6947712991e+00 -1.2907820767e+03 1.3131512690e+03 1.7300000000e+02 0.0000e+00 -1.0000e+00
<mgrwt>
<rscale>  2 0.24134599E+03</rscale>
<asrwt>0</asrwt>
<pdfrwt beam="1">  1       21 0.73838498E-02 0.24134599E+03</pdfrwt>
<pdfrwt beam="2">  1       21 0.26116312E+00 0.24134599E+03</pdfrwt>
<totfact> 0.75442423E+03</totfact>
</mgrwt>
<rwgt>
<wgt id='1'> +6.9761212e+02 </wgt>
<wgt id='2'> +5.8221111e+02 </wgt>
<wgt id='3'> +5.0481800e+02 </wgt>
<wgt id='4'> +6.9761212e+02 </wgt>
<wgt id='5'> +4.6837314e+02 </wgt>
<wgt id='6'> +6.1197471e+02 </wgt>
<wgt id='7'> +5.0795432e+02 </wgt>
<wgt id='8'> +4.4135552e+02 </wgt>
<wgt id='9'> +6.1197471e+02 </wgt>
<wgt id='10'> +4.1013126e+02 </wgt>
<wgt id='11'> +5.3504117e+02 </wgt>
<wgt id='12'> +4.4568107e+02 </wgt>
<wgt id='13'> +3.8838067e+02 </wgt>
<wgt id='14'> +5.3504117e+02 </wgt>
<wgt id='15'> +3.6147154e+02 </wgt>
<wgt id='16'> +5.7546030e+02 </wgt>
<wgt id='17'> +4.8888151e+02 </wgt>
<wgt id='18'> +4.2701035e+02 </wgt>
<wgt id='19'> +5.7546031e+02 </wgt>
<wgt id='20'> +3.9750211e+02 </wgt>
<wgt id='21'> +4.2652823e+02 </wgt>
<wgt id='22'> +3.7332935e+02 </wgt>
<wgt id='23'> +5.0481800e+02 </wgt>
<wgt id='24'> +3.4807299e+02 </wgt>
<wgt id='25'> +4.4135552e+02 </wgt>
<wgt id='26'> +3.7423750e+02 </wgt>
<wgt id='27'> +3.2851952e+02 </wgt>
<wgt id='28'> +4.4135552e+02 </wgt>
<wgt id='29'> +3.0677613e+02 </wgt>
<wgt id='30'> +4.8676455e+02 </wgt>
<wgt id='31'> +4.1658911e+02 </wgt>
<wgt id='32'> +3.6589501e+02 </wgt>
<wgt id='33'> +4.8676455e+02 </wgt>
<wgt id='34'> +3.4157723e+02 </wgt>
<wgt id='35'> +4.2701035e+02 </wgt>
<wgt id='36'> +3.6345620e+02 </wgt>
<wgt id='37'> +3.1989703e+02 </wgt>
<wgt id='38'> +4.2701035e+02 </wgt>
<wgt id='39'> +2.9910233e+02 </wgt>
<wgt id='40'> +3.7332935e+02 </wgt>
<wgt id='41'> +3.1889786e+02 </wgt>
<wgt id='42'> +2.8150056e+02 </wgt>
<wgt id='43'> +3.7332935e+02 </wgt>
<wgt id='44'> +2.6361556e+02 </wgt>
<wgt id='45'> +5.0481800e+02 </wgt>
<wgt id='46'> +5.1349198e+02 </wgt>
<wgt id='47'> +5.5950360e+02 </wgt>
<wgt id='48'> +5.0435657e+02 </wgt>
<wgt id='49'> +4.4811960e+02 </wgt>
<wgt id='50'> +5.9640190e+02 </wgt>
<wgt id='51'> +4.7180054e+02 </wgt>
<wgt id='52'> +4.3340919e+02 </wgt>
<wgt id='53'> +5.3585889e+02 </wgt>
<wgt id='54'> +5.4031457e+02 </wgt>
<wgt id='55'> +6.0914562e+02 </wgt>
<wgt id='56'> +4.9189939e+02 </wgt>
<wgt id='57'> +5.4416565e+02 </wgt>
<wgt id='58'> +4.3460042e+02 </wgt>
<wgt id='59'> +5.4608248e+02 </wgt>
<wgt id='60'> +4.8789167e+02 </wgt>
<wgt id='61'> +4.0395872e+02 </wgt>
<wgt id='62'> +4.4216383e+02 </wgt>
<wgt id='63'> +5.3974289e+02 </wgt>
<wgt id='64'> +5.0713413e+02 </wgt>
<wgt id='65'> +4.1438107e+02 </wgt>
<wgt id='66'> +5.2193686e+02 </wgt>
<wgt id='67'> +5.0604497e+02 </wgt>
<wgt id='68'> +6.8510510e+02 </wgt>
<wgt id='69'> +5.8745978e+02 </wgt>
<wgt id='70'> +6.0957294e+02 </wgt>
<wgt id='71'> +4.4254492e+02 </wgt>
<wgt id='72'> +4.2984016e+02 </wgt>
<wgt id='73'> +4.4338694e+02 </wgt>
<wgt id='74'> +6.3097342e+02 </wgt>
<wgt id='75'> +6.0230049e+02 </wgt>
<wgt id='76'> +5.1959159e+02 </wgt>
<wgt id='77'> +4.4941474e+02 </wgt>
<wgt id='78'> +4.1397094e+02 </wgt>
<wgt id='79'> +5.6873052e+02 </wgt>
<wgt id='80'> +4.1214647e+02 </wgt>
<wgt id='81'> +5.4904767e+02 </wgt>
<wgt id='82'> +5.0427236e+02 </wgt>
<wgt id='83'> +5.0255634e+02 </wgt>
<wgt id='84'> +4.6498535e+02 </wgt>
<wgt id='85'> +4.2804024e+02 </wgt>
<wgt id='86'> +5.5408211e+02 </wgt>
<wgt id='87'> +4.8247453e+02 </wgt>
<wgt id='88'> +5.1235758e+02 </wgt>
<wgt id='89'> +3.5911385e+02 </wgt>
<wgt id='90'> +4.2863655e+02 </wgt>
<wgt id='91'> +3.9693337e+02 </wgt>
<wgt id='92'> +4.7609760e+02 </wgt>
<wgt id='93'> +5.2077476e+02 </wgt>
<wgt id='94'> +4.4919489e+02 </wgt>
<wgt id='95'> +5.2753826e+02 </wgt>
<wgt id='96'> +5.2499873e+02 </wgt>
<wgt id='97'> +4.3342709e+02 </wgt>
<wgt id='98'> +5.9071885e+02 </wgt>
<wgt id='99'> +3.9041009e+02 </wgt>
<wgt id='100'> +3.4097878e+02 </wgt>
<wgt id='101'> +6.0223505e+02 </wgt>
<wgt id='102'> +5.8726323e+02 </wgt>
<wgt id='103'> +4.4282114e+02 </wgt>
<wgt id='104'> +5.6420941e+02 </wgt>
<wgt id='105'> +5.1466453e+02 </wgt>
<wgt id='106'> +5.0940169e+02 </wgt>
<wgt id='107'> +5.1190242e+02 </wgt>
<wgt id='108'> +4.7497266e+02 </wgt>
<wgt id='109'> +5.0399281e+02 </wgt>
<wgt id='110'> +4.2718097e+02 </wgt>
<wgt id='111'> +4.7980033e+02 </wgt>
<wgt id='112'> +5.3229334e+02 </wgt>
<wgt id='113'> +5.8703108e+02 </wgt>
<wgt id='114'> +5.1415287e+02 </wgt>
<wgt id='115'> +4.7420124e+02 </wgt>
<wgt id='116'> +5.7309764e+02 </wgt>
<wgt id='117'> +5.0761161e+02 </wgt>
<wgt id='118'> +5.0524573e+02 </wgt>
<wgt id='119'> +5.6808666e+02 </wgt>
<wgt id='120'> +5.0130227e+02 </wgt>
<wgt id='121'> +4.7229307e+02 </wgt>
<wgt id='122'> +4.8210550e+02 </wgt>
<wgt id='123'> +4.5847573e+02 </wgt>
<wgt id='124'> +5.6670077e+02 </wgt>
<wgt id='125'> +6.9535210e+02 </wgt>
<wgt id='126'> +4.8167015e+02 </wgt>
<wgt id='127'> +4.6008886e+02 </wgt>
<wgt id='128'> +5.0494581e+02 </wgt>
<wgt id='129'> +4.8626677e+02 </wgt>
<wgt id='130'> +5.1888923e+02 </wgt>
<wgt id='131'> +4.3506444e+02 </wgt>
<wgt id='132'> +5.4114401e+02 </wgt>
<wgt id='133'> +5.6202602e+02 </wgt>
<wgt id='134'> +5.5376411e+02 </wgt>
<wgt id='135'> +4.7070204e+02 </wgt>
<wgt id='136'> +6.1574334e+02 </wgt>
<wgt id='137'> +5.8019521e+02 </wgt>
<wgt id='138'> +5.4580706e+02 </wgt>
<wgt id='139'> +5.2285776e+02 </wgt>
<wgt id='140'> +4.8685794e+02 </wgt>
<wgt id='141'> +6.3447026e+02 </wgt>
<wgt id='142'> +2.7200968e+02 </wgt>
<wgt id='143'> +5.1020783e+02 </wgt>
<wgt id='144'> +4.3747013e+02 </wgt>
<wgt id='145'> +4.5319782e+02 </wgt>
</rwgt>
</event>
<event>
 4      1 +5.0481800e+02 2.59616200e+02 7.54677100e-03 1.10737400e-01
       21 -1    0    0  503  502 +0.0000000000e+00 +0.0000000000e+00 +7.0462261849e+01 7.0462261849e+01 0.0000000000e+00 0.0000e+00 1.0000e+00
       21 -1    0    0  501  503 -0.0000000000e+00 -0.0000000000e+00 -9.5675401774e+02 9.5675401774e+02 0.0000000000e+00 0.0000e+00 1.0000e+00
        6  1    1    2  501    0 -8.5572608525e+01 +1.7363444960e+02 -4.3562414103e+02 5.0711831526e+02 1.7300000000e+02 0.0000e+00 1.0000e+00
       -6  1    1    2    0  502 +8.5572608525e+01 -1.7363444960e+02 -4.5066761485e+02 5.2009796433e+02 1.7300000000e+02 0.0000e+00 1.0000e+00
<mgrwt>
<rscale>  2 0.25961624E+03</rscale>
<asrwt>0</asrwt>
<pdfrwt beam="1">  1       21 0.10840349E-01 0.25961624E+03</pdfrwt>
<pdfrwt beam="2">  1       21 0.14719291E+00 0.25961624E+03</pdfrwt>
<totfact> 0.21237916E+04</totfact>
</mgrwt>
<rwgt>
<wgt id='1'> +6.6345681e+02 </wgt>
<wgt id='2'> +5.5238990e+02 </wgt>
<wgt id='3'> +5.0481800e+02 </wgt>
<wgt id='4'> +6.6345681e+02 </wgt>
<wgt id='5'> +5.0479732e+02 </wgt>
<wgt id='6'> +6.0968598e+02 </wgt>
<wgt id='7'> +5.0395646e+02 </wgt>
<wgt id='8'> +4.6086489e+02 </wgt>
<wgt id='9'> +6.0968598e+02 </wgt>
<wgt id='10'> +4.6084612e+02 </wgt>
<wgt id='11'> +5.5660230e+02 </wgt>
<wgt id='12'> +4.6066089e+02 </wgt>
<wgt id='13'> +4.2158652e+02 </wgt>
<wgt id='14'> +5.5660230e+02 </wgt>
<wgt id='15'> +4.2156950e+02 </wgt>
<wgt id='16'> +5.4934007e+02 </wgt>
<wgt id='17'> +4.6578736e+02 </wgt>
<wgt id='18'> +4.2763253e+02 </wgt>
<wgt id='19'> +5.4934007e+02 </wgt>
<wgt id='20'> +4.2761592e+02 </wgt>
<wgt id='21'> +4.2494722e+02 </wgt>
<wgt id='22'> +3.9039974e+02 </wgt>
<wgt id='23'> +5.0481800e+02 </wgt>
<wgt id='24'> +3.9038468e+02 </wgt>
<wgt id='25'> +4.6086489e+02 </wgt>
<wgt id='26'> +3.8843944e+02 </wgt>
<wgt id='27'> +3.5712694e+02 </wgt>
<wgt id='28'> +4.6086489e+02 </wgt>
<wgt id='29'> +3.5711329e+02 </wgt>
<wgt id='30'> +4.6534728e+02 </wgt>
<wgt id='31'> +3.9800321e+02 </wgt>
<wgt id='32'> +3.6688659e+02 </wgt>
<wgt id='33'> +4.6534728e+02 </wgt>
<wgt id='34'> +3.6687300e+02 </wgt>
<wgt id='35'> +4.2763253e+02 </wgt>
<wgt id='36'> +3.6310636e+02 </wgt>
<wgt id='37'> +3.3494279e+02 </wgt>
<wgt id='38'> +4.2763253e+02 </wgt>
<wgt id='39'> +3.3493047e+02 </wgt>
<wgt id='40'> +3.9039974e+02 </wgt>
<wgt id='41'> +3.3191141e+02 </wgt>
<wgt id='42'> +3.0639644e+02 </wgt>
<wgt id='43'> +3.9039974e+02 </wgt>
<wgt id='44'> +3.0638528e+02 </wgt>
<wgt id='45'> +5.0481800e+02 </wgt>
<wgt id='46'> +5.1904889e+02 </wgt>
<wgt id='47'> +5.1955497e+02 </wgt>
<wgt id='48'> +5.0630797e+02 </wgt>
<wgt id='49'> +4.8143126e+02 </wgt>
<wgt id='50'> +5.9945059e+02 </wgt>
<wgt id='51'> +4.8393744e+02 </wgt>
<wgt id='52'> +4.9143801e+02 </wgt>
<wgt id='53'> +4.9963749e+02 </wgt>
<wgt id='54'> +5.2505782e+02 </wgt>
<wgt id='55'> +5.1962339e+02 </wgt>
<wgt id='56'> +4.6917745e+02 </wgt>
<wgt id='57'> +5.2348633e+02 </wgt>
<wgt id='58'> +4.7522926e+02 </wgt>
<wgt id='59'> +5.3935635e+02 </wgt>
<wgt id='60'> +5.0671642e+02 </wgt>
<wgt id='61'> +4.4758374e+02 </wgt>
<wgt id='62'> +4.8187840e+02 </wgt>
<wgt id='63'> +5.1830709e+02 </wgt>
<wgt id='64'> +5.0005957e+02 </wgt>
<wgt id='65'> +5.1410000e+02 </wgt>
<wgt id='66'> +5.0290374e+02 </wgt>
<wgt id='67'> +5.0704897e+02 </wgt>
<wgt id='68'> +5.8020163e+02 </wgt>
<wgt id='69'> +5.2310103e+02 </wgt>
<wgt id='70'> +5.1573369e+02 </wgt>
<wgt id='71'> +4.9246942e+02 </wgt>
<wgt id='72'> +4.7664179e+02 </wgt>
<wgt id='73'> +4.7195847e+02 </wgt>
<wgt id='74'> +5.5342048e+02 </wgt>
<wgt id='75'> +5.2800021e+02 </wgt>
<wgt id='76'> +5.0986054e+02 </wgt>
<wgt id='77'> +4.8946788e+02 </wgt>
<wgt id='78'> +4.5872618e+02 </wgt>
<wgt id='79'> +5.1784407e+02 </wgt>
<wgt id='80'> +4.7131458e+02 </wgt>
<wgt id='81'> +5.0611958e+02 </wgt>
<wgt id='82'> +4.8897136e+02 </wgt>
<wgt id='83'> +5.0386423e+02 </wgt>
<wgt id='84'> +5.1903737e+02 </wgt>
<wgt id='85'> +4.8583996e+02 </wgt>
<wgt id='86'> +5.1691802e+02 </wgt>
<wgt id='87'> +5.0467884e+02 </wgt>
<wgt id='88'> +4.9898469e+02 </wgt>
<wgt id='89'> +4.7616914e+02 </wgt>
<wgt id='90'> +4.9714527e+02 </wgt>
<wgt id='91'> +4.8069217e+02 </wgt>
<wgt id='92'> +4.6657120e+02 </wgt>
<wgt id='93'> +5.0608898e+02 </wgt>
<wgt id='94'> +4.7630556e+02 </wgt>
<wgt id='95'> +5.1720754e+02 </wgt>
<wgt id='96'> +5.3253635e+02 </wgt>
<wgt id='97'> +4.7930057e+02 </wgt>
<wgt id='98'> +5.1590308e+02 </wgt>
<wgt id='99'> +4.5287971e+02 </wgt>
<wgt id='100'> +4.2874671e+02 </wgt>
<wgt id='101'> +5.7483291e+02 </wgt>
<wgt id='102'> +5.4532919e+02 </wgt>
<wgt id='103'> +5.1552472e+02 </wgt>
<wgt id='104'> +5.2390777e+02 </wgt>
<wgt id='105'> +5.1902419e+02 </wgt>
<wgt id='106'> +4.7368129e+02 </wgt>
<wgt id='107'> +4.8016637e+02 </wgt>
<wgt id='108'> +4.5787540e+02 </wgt>
<wgt id='109'> +4.8794067e+02 </wgt>
<wgt id='110'> +4.8396868e+02 </wgt>
<wgt id='111'> +4.9243566e+02 </wgt>
<wgt id='112'> +5.0068276e+02 </wgt>
<wgt id='113'> +4.9442951e+02 </wgt>
<wgt id='114'> +5.0781535e+02 </wgt>
<wgt id='115'> +4.6920086e+02 </wgt>
<wgt id='116'> +5.3873951e+02 </wgt>
<wgt id='117'> +4.9471680e+02 </wgt>
<wgt id='118'> +5.2754974e+02 </wgt>
<wgt id='119'> +5.2027614e+02 </wgt>
<wgt id='120'> +5.0081993e+02 </wgt>
<wgt id='121'> +4.9971962e+02 </wgt>
<wgt id='122'> +4.9776006e+02 </wgt>
<wgt id='123'> +4.9724219e+02 </wgt>
<wgt id='124'> +5.6655187e+02 </wgt>
<wgt id='125'> +5.9520008e+02 </wgt>
<wgt id='126'> +5.0755585e+02 </wgt>
<wgt id='127'> +5.0213875e+02 </wgt>
<wgt id='128'> +4.7013894e+02 </wgt>
<wgt id='129'> +5.4190892e+02 </wgt>
<wgt id='130'> +4.9023172e+02 </wgt>
<wgt id='131'> +4.9597158e+02 </wgt>
<wgt id='132'> +5.4554072e+02 </wgt>
<wgt id='133'> +5.3533341e+02 </wgt>
<wgt id='134'> +5.1090199e+02 </wgt>
<wgt id='135'> +4.9738504e+02 </wgt>
<wgt id='136'> +5.6073244e+02 </wgt>
<wgt id='137'> +5.0317659e+02 </wgt>
<wgt id='138'> +4.9589929e+02 </wgt>
<wgt id='139'> +5.2022073e+02 </wgt>
<wgt id='140'> +5.0391343e+02 </wgt>
<wgt id='141'> +5.3901625e+02 </wgt>
<wgt id='142'> +4.2029588e+02 </wgt>
<wgt id='143'> +5.1862696e+02 </wgt>
<wgt id='144'> +4.7713673e+02 </wgt>
<wgt id='145'> +4.8375309e+02 </wgt>
</rwgt>
</event>
<event>
 4      1 +5.0481800e+02 1.90068500e+02 7.54677100e-03 1.15840000e-01
       21 -1    0    0  501  502 +0.0000000000e+00 +0.0000000000e+00 +1.7093440033e+02 1.7093440033e+02 0.0000000000e+00 0.0000e+00 1.0000e+00
       21 -1    0    0  502  503 -0.0000000000e+00 -0.0000000000e+00 -3.1822929951e+02 3.1822929951e+02 0.0000000000e+00 0.0000e+00 1.0000e+00
        6  1    1    2  501    0 -7.8637069121e+01 -3.6388724708e+00 +6.8099035966e+01 2.0189974921e+02 1.7300000000e+02 0.0000e+00 1.0000e+00
       -6  1    1    2    0  503 +7.8637069121e+01 +3.6388724708e+00 -2.1539393515e+02 2.8726395063e+02 1.7300000000e+02 0.0000e+00 1.0000e+00
<mgrwt>
<rscale>  2 0.19006849E+03</rscale>
<asrwt>0</asrwt>
<pdfrwt beam="1">  1       21 0.26297601E-01 0.19006849E+03</pdfrwt>
<pdfrwt beam="2">  1       21 0.48958353E-01 0.19006849E+03</pdfrwt>
<totfact> 0.54800640E+04</totfact>
</mgrwt>
<rwgt>
<wgt id='1'> +6.5137197e+02 </wgt>
<wgt id='2'> +5.8660353e+02 </wgt>
<wgt id='3'> +5.0481800e+02 </wgt>
<wgt id='4'> +6.5137197e+02 </wgt>
<wgt id='5'> +4.6964585e+02 </wgt>
<wgt id='6'> +6.1987175e+02 </wgt>
<wgt id='7'> +5.5355815e+02 </wgt>
<wgt id='8'> +4.7205961e+02 </wgt>
<wgt id='9'> +6.1987175e+02 </wgt>
<wgt id='10'> +4.3906413e+02 </wgt>
<wgt id='11'> +5.7964735e+02 </wgt>
<wgt id='12'> +5.1749886e+02 </wgt>
<wgt id='13'> +4.4133441e+02 </wgt>
<wgt id='14'> +5.7964735e+02 </wgt>
<wgt id='15'> +4.1054190e+02 </wgt>
<wgt id='16'> +5.3047149e+02 </wgt>
<wgt id='17'> +4.8489805e+02 </wgt>
<wgt id='18'> +4.2484552e+02 </wgt>
<wgt id='19'> +5.3047150e+02 </wgt>
<wgt id='20'> +3.9698236e+02 </wgt>
<wgt id='21'> +4.5758210e+02 </wgt>
<wgt id='22'> +3.9727666e+02 </wgt>
<wgt id='23'> +5.0481800e+02 </wgt>
<wgt id='24'> +3.7113224e+02 </wgt>
<wgt id='25'> +4.7205961e+02 </wgt>
<wgt id='26'> +4.2777477e+02 </wgt>
<wgt id='27'> +3.7141890e+02 </wgt>
<wgt id='28'> +4.7205961e+02 </wgt>
<wgt id='29'> +3.4702296e+02 </wgt>
<wgt id='30'> +4.4643503e+02 </wgt>
<wgt id='31'> +4.1049284e+02 </wgt>
<wgt id='32'> +3.6250472e+02 </wgt>
<wgt id='33'> +4.4643503e+02 </wgt>
<wgt id='34'> +3.3996325e+02 </wgt>
<wgt id='35'> +4.2484552e+02 </wgt>
<wgt id='36'> +3.8736838e+02 </wgt>
<wgt id='37'> +3.3898125e+02 </wgt>
<wgt id='38'> +4.2484552e+02 </wgt>
<wgt id='39'> +3.1782602e+02 </wgt>
<wgt id='40'> +3.9727666e+02 </wgt>
<wgt id='41'> +3.6213484e+02 </wgt>
<wgt id='42'> +3.1691779e+02 </wgt>
<wgt id='43'> +3.9727666e+02 </wgt>
<wgt id='44'> +2.9717959e+02 </wgt>
<wgt id='45'> +5.0481800e+02 </wgt>
<wgt id='46'> +5.0568156e+02 </wgt>
<wgt id='47'> +5.2346083e+02 </wgt>
<wgt id='48'> +5.0688380e+02 </wgt>
<wgt id='49'> +5.0387386e+02 </wgt>
<wgt id='50'> +5.9235682e+02 </wgt>
<wgt id='51'> +4.9508864e+02 </wgt>
<wgt id='52'> +5.0224020e+02 </wgt>
<wgt id='53'> +5.1023371e+02 </wgt>
<wgt id='54'> +5.0768015e+02 </wgt>
<wgt id='55'> +4.5016957e+02 </wgt>
<wgt id='56'> +4.6840879e+02 </wgt>
<wgt id='57'> +4.9098692e+02 </wgt>
<wgt id='58'> +5.0755227e+02 </wgt>
<wgt id='59'> +4.9800244e+02 </wgt>
<wgt id='60'> +4.8470559e+02 </wgt>
<wgt id='61'> +4.9033748e+02 </wgt>
<wgt id='62'> +4.9844487e+02 </wgt>
<wgt id='63'> +5.0518787e+02 </wgt>
<wgt id='64'> +4.9932373e+02 </wgt>
<wgt id='65'> +5.9664876e+02 </wgt>
<wgt id='66'> +4.9280167e+02 </wgt>
<wgt id='67'> +5.0936954e+02 </wgt>
<wgt id='68'> +5.4182528e+02 </wgt>
<wgt id='69'> +4.9326305e+02 </wgt>
<wgt id='70'> +4.9604038e+02 </wgt>
<wgt id='71'> +5.1447848e+02 </wgt>
<wgt id='72'> +4.8898556e+02 </wgt>
<wgt id='73'> +4.9784685e+02 </wgt>
<wgt id='74'> +5.2075512e+02 </wgt>
<wgt id='75'> +5.1628587e+02 </wgt>
<wgt id='76'> +4.8954079e+02 </wgt>
<wgt id='77'> +4.8665691e+02 </wgt>
<wgt id='78'> +5.0443563e+02 </wgt>
<wgt id='79'> +4.8432730e+02 </wgt>
<wgt id='80'> +5.0022965e+02 </wgt>
<wgt id='81'> +4.9498166e+02 </wgt>
<wgt id='82'> +5.1828299e+02 </wgt>
<wgt id='83'> +5.1594326e+02 </wgt>
<wgt id='84'> +5.5561601e+02 </wgt>
<wgt id='85'> +5.3186986e+02 </wgt>
<wgt id='86'> +5.0198931e+02 </wgt>
<wgt id='87'> +5.0515545e+02 </wgt>
<wgt id='88'> +5.1397379e+02 </wgt>
<wgt id='89'> +5.1757222e+02 </wgt>
<wgt id='90'> +5.1088160e+02 </wgt>
<wgt id='91'> +5.3746791e+02 </wgt>
<wgt id='92'> +4.6234370e+02 </wgt>
<wgt id='93'> +4.9652019e+02 </wgt>
<wgt id='94'> +5.0159873e+02 </wgt>
<wgt id='95'> +4.8341065e+02 </wgt>
<wgt id='96'> +5.4718017e+02 </wgt>
<wgt id='97'> +5.1236669e+02 </wgt>
<wgt id='98'> +4.8130482e+02 </wgt>
<wgt id='99'> +4.8990312e+02 </wgt>
<wgt id='100'> +4.9975723e+02 </wgt>
<wgt id='101'> +5.3191472e+02 </wgt>
<wgt id='102'> +4.9124240e+02 </wgt>
<wgt id='103'> +5.4958770e+02 </wgt>
<wgt id='104'> +5.0433642e+02 </wgt>
<wgt id='105'> +5.2430010e+02 </wgt>
<wgt id='106'> +4.6249224e+02 </wgt>
<wgt id='107'> +4.9719715e+02 </wgt>
<wgt id='108'> +4.5047064e+02 </wgt>
<wgt id='109'> +4.7304959e+02 </wgt>
<wgt id='110'> +5.0559007e+02 </wgt>
<wgt id='111'> +4.9097244e+02 </wgt>
<wgt id='112'> +4.8064180e+02 </wgt>
<wgt id='113'> +4.6224263e+02 </wgt>
<wgt id='114'> +5.0216020e+02 </wgt>
<wgt id='115'> +5.0451387e+02 </wgt>
<wgt id='116'> +5.0545745e+02 </wgt>
<wgt id='117'> +5.1122963e+02 </wgt>
<wgt id='118'> +5.1869234e+02 </wgt>
<wgt id='119'> +4.8442299e+02 </wgt>
<wgt id='120'> +5.0198994e+02 </wgt>
<wgt id='121'> +4.8999295e+02 </wgt>
<wgt id='122'> +4.9802607e+02 </wgt>
<wgt id='123'> +5.1179131e+02 </wgt>
<wgt id='124'> +5.4052868e+02 </wgt>
<wgt id='125'> +5.4149245e+02 </wgt>
<wgt id='126'> +5.2503949e+02 </wgt>
<wgt id='127'> +5.2044792e+02 </wgt>
<wgt id='128'> +4.6769015e+02 </wgt>
<wgt id='129'> +5.7280528e+02 </wgt>
<wgt id='130'> +5.0919639e+02 </wgt>
<wgt id='131'> +5.4124291e+02 </wgt>
<wgt id='132'> +4.9985987e+02 </wgt>
<wgt id='133'> +5.0202830e+02 </wgt>
<wgt id='134'> +4.7446793e+02 </wgt>
<wgt id='135'> +5.1806554e+02 </wgt>
<wgt id='136'> +4.8401316e+02 </wgt>
<wgt id='137'> +4.7534712e+02 </wgt>
<wgt id='138'> +4.5952295e+02 </wgt>
<wgt id='139'> +5.1506757e+02 </wgt>
<wgt id='140'> +5.3663317e+02 </wgt>
<wgt id='141'> +5.0415059e+02 </wgt>
<wgt id='142'> +5.0758143e+02 </wgt>
<wgt id='143'> +5.0062177e+02 </wgt>
<wgt id='144'> +5.0386886e+02 </wgt>
<wgt id='145'> +5.0610220e+02 </wgt>
</rwgt>
</event>
<event>
 4      1 +5.0481800e+02 1.95900300e+02 7.54677100e-03 1.15324500e-01
       21 -1    0    0  501  502 +0.0000000000e+00 +0.0000000000e+00 +9.8228218856e+02 9.8228218856e+02 0.0000000000e+00 0.0000e+00 -1.0000e+00
       21 -1    0    0  502  503 -0.0000000000e+00 -0.0000000000e+00 -1.8260238486e+02 1.8260238486e+02 0.0000000000e+00 0.0000e+00 -1.0000e+00
        6  1    1    2  501    0 -1.6948765041e+01 -9.0336360490e+01 +9.1622765016e+02 9.3693651097e+02 1.7300000000e+02 0.0000e+00 -1.0000e+00
       -6  1    1    2    0  503 +1.6948765041e+01 +9.0336360490e+01 -1.1654784646e+02 2.2794806246e+02 1.7300000000e+02 0.0000e+00 -1.0000e+00
<mgrwt>
<rscale>  2 0.19590028E+03</rscale>
<asrwt>0</asrwt>
<pdfrwt beam="1">  1       21 0.15112033E+00 0.19590028E+03</pdfrwt>
<pdfrwt beam="2">  1       21 0.28092675E-01 0.19590028E+03</pdfrwt>
<totfact> 0.35380653E+03</totfact>
</mgrwt>
<rwgt>
<wgt id='1'> +6.9098355e+02 </wgt>
<wgt id='2'> +6.3522916e+02 </wgt>
<wgt id='3'> +5.0481800e+02 </wgt>
<wgt id='4'> +6.9098356e+02 </wgt>
<wgt id='5'> +3.6495567e+02 </wgt>
<wgt id='6'> +6.1895900e+02 </wgt>
<wgt id='7'> +5.6679261e+02 </wgt>
<wgt id='8'> +4.4724775e+02 </wgt>
<wgt id='9'> +6.1895900e+02 </wgt>
<wgt id='10'> +3.2509443e+02 </wgt>
<wgt id='11'> +5.4837193e+02 </wgt>
<wgt id='12'> +5.0280929e+02 </wgt>
<wgt id='13'> +3.9817893e+02 </wgt>
<wgt id='14'> +5.4837193e+02 </wgt>
<wgt id='15'> +2.9100489e+02 </wgt>
<wgt id='16'> +5.6356065e+02 </wgt>
<wgt id='17'> +5.2323867e+02 </wgt>
<wgt id='18'> +4.2519834e+02 </wgt>
<wgt id='19'> +5.6356065e+02 </wgt>
<wgt id='20'> +3.1200957e+02 </wgt>
<wgt id='21'> +4.6686744e+02 </wgt>
<wgt id='22'> +3.7670804e+02 </wgt>
<wgt id='23'> +5.0481800e+02 </wgt>
<wgt id='24'> +2.7793122e+02 </wgt>
<wgt id='25'> +4.4724775e+02 </wgt>
<wgt id='26'> +4.1416433e+02 </wgt>
<wgt id='27'> +3.3537833e+02 </wgt>
<wgt id='28'> +4.4724775e+02 </wgt>
<wgt id='29'> +2.4878723e+02 </wgt>
<wgt id='30'> +4.7467612e+02 </wgt>
<wgt id='31'> +4.4233935e+02 </wgt>
<wgt id='32'> +3.6300440e+02 </wgt>
<wgt id='33'> +4.7467612e+02 </wgt>
<wgt id='34'> +2.6980086e+02 </wgt>
<wgt id='35'> +4.2519833e+02 </wgt>
<wgt id='36'> +3.9468383e+02 </wgt>
<wgt id='37'> +3.2160680e+02 </wgt>
<wgt id='38'> +4.2519834e+02 </wgt>
<wgt id='39'> +2.4033263e+02 </wgt>
<wgt id='40'> +3.7670804e+02 </wgt>
<wgt id='41'> +3.5012929e+02 </wgt>
<wgt id='42'> +2.8632240e+02 </wgt>
<wgt id='43'> +3.7670804e+02 </wgt>
<wgt id='44'> +2.1513125e+02 </wgt>
<wgt id='45'> +5.0481800e+02 </wgt>
<wgt id='46'> +5.2435573e+02 </wgt>
<wgt id='47'> +5.2593976e+02 </wgt>
<wgt id='48'> +5.1038397e+02 </wgt>
<wgt id='49'> +4.8076127e+02 </wgt>
<wgt id='50'> +6.2958102e+02 </wgt>
<wgt id='51'> +4.8249317e+02 </wgt>
<wgt id='52'> +4.9172180e+02 </wgt>
<wgt id='53'> +4.9780262e+02 </wgt>
<wgt id='54'> +5.2609595e+02 </wgt>
<wgt id='55'> +5.0804461e+02 </wgt>
<wgt id='56'> +4.5932025e+02 </wgt>
<wgt id='57'> +5.2005050e+02 </wgt>
<wgt id='58'> +4.6954171e+02 </wgt>
<wgt id='59'> +5.4170359e+02 </wgt>
<wgt id='60'> +5.0569863e+02 </wgt>
<wgt id='61'> +4.4223802e+02 </wgt>
<wgt id='62'> +4.8223110e+02 </wgt>
<wgt id='63'> +5.1859468e+02 </wgt>
<wgt id='64'> +4.9524080e+02 </wgt>
<wgt id='65'> +5.2884099e+02 </wgt>
<wgt id='66'> +5.0229258e+02 </wgt>
<wgt id='67'> +5.0737441e+02 </wgt>
<wgt id='68'> +5.9024930e+02 </wgt>
<wgt id='69'> +5.3080544e+02 </wgt>
<wgt id='70'> +5.1237896e+02 </wgt>
<wgt id='71'> +4.9252943e+02 </wgt>
<wgt id='72'> +4.6282091e+02 </wgt>
<wgt id='73'> +4.6779998e+02 </wgt>
<wgt id='74'> +5.6138816e+02 </wgt>
<wgt id='75'> +5.3176976e+02 </wgt>
<wgt id='76'> +5.0536646e+02 </wgt>
<wgt id='77'> +4.8948897e+02 </wgt>
<wgt id='78'> +4.5404156e+02 </wgt>
<wgt id='79'> +5.1720717e+02 </wgt>
<wgt id='80'> +4.6838338e+02 </wgt>
<wgt id='81'> +5.0201330e+02 </wgt>
<wgt id='82'> +4.8875047e+02 </wgt>
<wgt id='83'> +5.0988096e+02 </wgt>
<wgt id='84'> +5.3019203e+02 </wgt>
<wgt id='85'> +4.9039542e+02 </wgt>
<wgt id='86'> +5.2079843e+02 </wgt>
<wgt id='87'> +5.0652305e+02 </wgt>
<wgt id='88'> +5.0290688e+02 </wgt>
<wgt id='89'> +4.7965678e+02 </wgt>
<wgt id='90'> +4.9813553e+02 </wgt>
<wgt id='91'> +4.8308920e+02 </wgt>
<wgt id='92'> +4.4897584e+02 </wgt>
<wgt id='93'> +5.0788884e+02 </wgt>
<wgt id='94'> +4.7165177e+02 </wgt>
<wgt id='95'> +5.1064757e+02 </wgt>
<wgt id='96'> +5.4740122e+02 </wgt>
<wgt id='97'> +4.7736524e+02 </wgt>
<wgt id='98'> +5.1346753e+02 </wgt>
<wgt id='99'> +4.4840794e+02 </wgt>
<wgt id='100'> +4.1898811e+02 </wgt>
<wgt id='101'> +5.8915004e+02 </wgt>
<wgt id='102'> +5.5302112e+02 </wgt>
<wgt id='103'> +5.2545701e+02 </wgt>
<wgt id='104'> +5.2825902e+02 </wgt>
<wgt id='105'> +5.1654338e+02 </wgt>
<wgt id='106'> +4.5841150e+02 </wgt>
<wgt id='107'> +4.7022440e+02 </wgt>
<wgt id='108'> +4.4271664e+02 </wgt>
<wgt id='109'> +4.7802165e+02 </wgt>
<wgt id='110'> +4.8147267e+02 </wgt>
<wgt id='111'> +4.8760088e+02 </wgt>
<wgt id='112'> +4.9402120e+02 </wgt>
<wgt id='113'> +4.8375928e+02 </wgt>
<wgt id='114'> +5.0048684e+02 </wgt>
<wgt id='115'> +4.6402074e+02 </wgt>
<wgt id='116'> +5.4803839e+02 </wgt>
<wgt id='117'> +4.9402115e+02 </wgt>
<wgt id='118'> +5.3687970e+02 </wgt>
<wgt id='119'> +5.1456080e+02 </wgt>
<wgt id='120'> +4.9923236e+02 </wgt>
<wgt id='121'> +4.9407193e+02 </wgt>
<wgt id='122'> +4.9564040e+02 </wgt>
<wgt id='123'> +5.0161822e+02 </wgt>
<wgt id='124'> +5.8086585e+02 </wgt>
<wgt id='125'> +6.0886906e+02 </wgt>
<wgt id='126'> +5.1417699e+02 </wgt>
<wgt id='127'> +5.0698756e+02 </wgt>
<wgt id='128'> +4.6314400e+02 </wgt>
<wgt id='129'> +5.5267906e+02 </wgt>
<wgt id='130'> +4.9413424e+02 </wgt>
<wgt id='131'> +4.9994433e+02 </wgt>
<wgt id='132'> +5.4705935e+02 </wgt>
<wgt id='133'> +5.4105022e+02 </wgt>
<wgt id='134'> +5.0599316e+02 </wgt>
<wgt id='135'> +4.9892092e+02 </wgt>
<wgt id='136'> +5.5965227e+02 </wgt>
<wgt id='137'> +5.0248996e+02 </wgt>
<wgt id='138'> +4.9962847e+02 </wgt>
<wgt id='139'> +5.2401994e+02 </wgt>
<wgt id='140'> +5.0532332e+02 </wgt>
<wgt id='141'> +5.4143991e+02 </wgt>
<wgt id='142'> +4.1399575e+02 </wgt>
<wgt id='143'> +5.1843309e+02 </wgt>
<wgt id='144'> +4.7151106e+02 </wgt>
<wgt id='145'> +4.8342795e+02 </wgt>
</rwgt>
</event>
<event>
 4      1 +5.0481800e+02 1.84637300e+02 7.54677100e-03 1.16338900e-01
        1 -1    0    0  502    0 +0.0000000000e+00 +0.0000000000e+00 +1.0629355998e+02 1.0629355998e+02 0.0000000000e+00 0.0000e+00 1.0000e+00
       -1 -1    0    0    0  501 -0.0000000000e+00 -0.0000000000e+00 -5.3623176275e+02 5.3623176275e+02 0.0000000000e+00 0.0000e+00 -1.0000e+00
        6  1    1    2  502    0 +5.2609865632e+01 -3.7338057704e+01 -1.1304695965e+01 1.8498303886e+02 1.7300000000e+02 0.0000e+00 1.0000e+00
       -6  1    1    2    0  501 -5.2609865632e+01 +3.7338057704e+01 -4.1863350681e+02 4.5754228388e+02 1.7300000000e+02 0.0000e+00 -1.0000e+00
<mgrwt>
<rscale>  2 0.18463729E+03</rscale>
<asrwt>0</asrwt>
<pdfrwt beam="1">  1        1 0.16352856E-01 0.18463729E+03</pdfrwt>
<pdfrwt beam="2">  1       -1 0.82497192E-01 0.18463729E+03</pdfrwt>
<totfact> 0.50948690E+02</totfact>
</mgrwt>
<rwgt>
<wgt id='1'> +6.1779830e+02 </wgt>
<wgt id='2'> +5.6284713e+02 </wgt>
<wgt id='3'> +5.0481800e+02 </wgt>
<wgt id='4'> +6.1779830e+02 </wgt>
<wgt id='5'> +4.7255902e+02 </wgt>
<wgt id='6'> +6.2069210e+02 </wgt>
<wgt id='7'> +5.6392262e+02 </wgt>
<wgt id='8'> +5.0423564e+02 </wgt>
<wgt id='9'> +6.2069211e+02 </wgt>
<wgt id='10'> +4.7114176e+02 </wgt>
<wgt id='11'> +6.1997607e+02 </wgt>
<wgt id='12'> +5.6202923e+02 </wgt>
<wgt id='13'> +5.0136765e+02 </wgt>
<wgt id='14'> +6.1997607e+02 </wgt>
<wgt id='15'> +4.6782074e+02 </wgt>
<wgt id='16'> +5.0246442e+02 </wgt>
<wgt id='17'> +4.6531652e+02 </wgt>
<wgt id='18'> +4.2448433e+02 </wgt>
<wgt id='19'> +5.0246442e+02 </wgt>
<wgt id='20'> +3.9963561e+02 </wgt>
<wgt id='21'> +4.6620566e+02 </wgt>
<wgt id='22'> +4.2399465e+02 </wgt>
<wgt id='23'> +5.0481800e+02 </wgt>
<wgt id='24'> +3.9843705e+02 </wgt>
<wgt id='25'> +5.0423564e+02 </wgt>
<wgt id='26'> +4.6464035e+02 </wgt>
<wgt id='27'> +4.2158305e+02 </wgt>
<wgt id='28'> +5.0423564e+02 </wgt>
<wgt id='29'> +3.9562852e+02 </wgt>
<wgt id='30'> +4.2250529e+02 </wgt>
<wgt id='31'> +3.9393439e+02 </wgt>
<wgt id='32'> +3.6200573e+02 </wgt>
<wgt id='33'> +4.2250529e+02 </wgt>
<wgt id='34'> +3.4237398e+02 </wgt>
<wgt id='35'> +4.2448433e+02 </wgt>
<wgt id='36'> +3.9468713e+02 </wgt>
<wgt id='37'> +3.6158812e+02 </wgt>
<wgt id='38'> +4.2448433e+02 </wgt>
<wgt id='39'> +3.4134716e+02 </wgt>
<wgt id='40'> +4.2399464e+02 </wgt>
<wgt id='41'> +3.9336195e+02 </wgt>
<wgt id='42'> +3.5953148e+02 </wgt>
<wgt id='43'> +4.2399465e+02 </wgt>
<wgt id='44'> +3.3894105e+02 </wgt>
<wgt id='45'> +5.0481800e+02 </wgt>
<wgt id='46'> +5.2055175e+02 </wgt>
<wgt id='47'> +5.1036513e+02 </wgt>
<wgt id='48'> +4.6543308e+02 </wgt>
<wgt id='49'> +4.9616854e+02 </wgt>
<wgt id='50'> +4.4740093e+02 </wgt>
<wgt id='51'> +4.4549850e+02 </wgt>
<wgt id='52'> +5.6641409e+02 </wgt>
<wgt id='53'> +5.6105620e+02 </wgt>
<wgt id='54'> +5.0245583e+02 </wgt>
<wgt id='55'> +4.7710328e+02 </wgt>
<wgt id='56'> +4.8137145e+02 </wgt>
<wgt id='57'> +4.3413719e+02 </wgt>
<wgt id='58'> +6.1842898e+02 </wgt>
<wgt id='59'> +4.6419755e+02 </wgt>
<wgt id='60'> +4.9685359e+02 </wgt>
<wgt id='61'> +4.7586898e+02 </wgt>
<wgt id='62'> +5.2719866e+02 </wgt>
<wgt id='63'> +5.4030451e+02 </wgt>
<wgt id='64'> +4.8798738e+02 </wgt>
<wgt id='65'> +4.6473412e+02 </wgt>
<wgt id='66'> +4.5004633e+02 </wgt>
<wgt id='67'> +5.2723917e+02 </wgt>
<wgt id='68'> +4.6441909e+02 </wgt>
<wgt id='69'> +4.7295095e+02 </wgt>
<wgt id='70'> +5.9897322e+02 </wgt>
<wgt id='71'> +4.6409080e+02 </wgt>
<wgt id='72'> +4.5637830e+02 </wgt>
<wgt id='73'> +5.4066616e+02 </wgt>
<wgt id='74'> +5.0250971e+02 </wgt>
<wgt id='75'> +4.8359178e+02 </wgt>
<wgt id='76'> +5.1025115e+02 </wgt>
<wgt id='77'> +4.9843480e+02 </wgt>
<wgt id='78'> +4.8039347e+02 </wgt>
<wgt id='79'> +5.3425083e+02 </wgt>
<wgt id='80'> +4.9311116e+02 </wgt>
<wgt id='81'> +5.7616204e+02 </wgt>
<wgt id='82'> +4.8905793e+02 </wgt>
<wgt id='83'> +4.7027950e+02 </wgt>
<wgt id='84'> +5.1540976e+02 </wgt>
<wgt id='85'> +4.9171771e+02 </wgt>
<wgt id='86'> +5.8489276e+02 </wgt>
<wgt id='87'> +5.3499898e+02 </wgt>
<wgt id='88'> +4.7368309e+02 </wgt>
<wgt id='89'> +6.2817423e+02 </wgt>
<wgt id='90'> +5.7320034e+02 </wgt>
<wgt id='91'> +4.4383099e+02 </wgt>
<wgt id='92'> +4.7643474e+02 </wgt>
<wgt id='93'> +5.2534484e+02 </wgt>
<wgt id='94'> +5.3176537e+02 </wgt>
<wgt id='95'> +4.6995130e+02 </wgt>
<wgt id='96'> +5.0983440e+02 </wgt>
<wgt id='97'> +4.7764421e+02 </wgt>
<wgt id='98'> +4.9905961e+02 </wgt>
<wgt id='99'> +5.8029805e+02 </wgt>
<wgt id='100'> +4.2950406e+02 </wgt>
<wgt id='101'> +4.9648333e+02 </wgt>
<wgt id='102'> +5.2534532e+02 </wgt>
<wgt id='103'> +5.5155032e+02 </wgt>
<wgt id='104'> +4.4132888e+02 </wgt>
<wgt id='105'> +5.3052227e+02 </wgt>
<wgt id='106'> +5.1901293e+02 </wgt>
<wgt id='107'> +5.0409960e+02 </wgt>
<wgt id='108'> +4.7218276e+02 </wgt>
<wgt id='109'> +4.4603596e+02 </wgt>
<wgt id='110'> +5.5282704e+02 </wgt>
<wgt id='111'> +4.9334818e+02 </wgt>
<wgt id='112'> +4.6560747e+02 </wgt>
<wgt id='113'> +5.3341174e+02 </wgt>
<wgt id='114'> +4.6662329e+02 </wgt>
<wgt id='115'> +4.3964791e+02 </wgt>
<wgt id='116'> +4.7407386e+02 </wgt>
<wgt id='117'> +4.5886264e+02 </wgt>
<wgt id='118'> +5.1873032e+02 </wgt>
<wgt id='119'> +5.5763888e+02 </wgt>
<wgt id='120'> +5.1130393e+02 </wgt>
<wgt id='121'> +4.7539082e+02 </wgt>
<wgt id='122'> +5.0124069e+02 </wgt>
<wgt id='123'> +4.9739021e+02 </wgt>
<wgt id='124'> +4.8444546e+02 </wgt>
<wgt id='125'> +4.6367434e+02 </wgt>
<wgt id='126'> +5.3892264e+02 </wgt>
<wgt id='127'> +5.3096891e+02 </wgt>
<wgt id='128'> +4.7669088e+02 </wgt>
<wgt id='129'> +5.1826995e+02 </wgt>
<wgt id='130'> +4.5038172e+02 </wgt>
<wgt id='131'> +5.5330567e+02 </wgt>
<wgt id='132'> +4.8833020e+02 </wgt>
<wgt id='133'> +6.5299436e+02 </wgt>
<wgt id='134'> +4.5252498e+02 </wgt>
<wgt id='135'> +4.3498338e+02 </wgt>
<wgt id='136'> +5.7532719e+02 </wgt>
<wgt id='137'> +5.1488480e+02 </wgt>
<wgt id='138'> +4.8660493e+02 </wgt>
<wgt id='139'> +6.2903934e+02 </wgt>
<wgt id='140'> +4.8335264e+02 </wgt>
<wgt id='141'> +5.4390756e+02 </wgt>
<wgt id='142'> +4.6080247e+02 </wgt>
<wgt id='143'> +5.2143284e+02 </wgt>
<wgt id='144'> +4.9803307e+02 </wgt>
<wgt id='145'> +5.4996126e+02 </wgt>
</rwgt>
</event>
<event>
 4      1 +5.0481800e+02 2.53860100e+02 7.54677100e-03 1.11088900e-01
       21 -1    0    0  503  502 +0.0000000000e+00 +0.0000000000e+00 +7.7463930023e+01 7.7463930023e+01 0.0000000000e+00 0.0000e+00 -1.0000e+00
       21 -1    0    0  501  503 -0.0000000000e+00 -0.0000000000e+00 -9.6116521218e+02 9.6116521218e+02 0.0000000000e+00 0.0000e+00 1.0000e+00
        6  1    1    2  501    0 +1.1955111968e+02 +1.4220925583e+02 -6.3227117328e+02 6.8133088820e+02 1.7300000000e+02 0.0000e+00 1.0000e+00
       -6  1    1    2    0  502 -1.1955111968e+02 -1.4220925583e+02 -2.5143010888e+02 3.5729825400e+02 1.7300000000e+02 0.0000e+00 -1.0000e+00
<mgrwt>
<rscale>  2 0.25386008E+03</rscale>
<asrwt>0</asrwt>
<pdfrwt beam="1">  1       21 0.11917528E-01 0.25386008E+03</pdfrwt>
<pdfrwt beam="2">  1       21 0.14787157E+00 0.25386008E+03</pdfrwt>
<totfact> 0.17755284E+04</totfact>
</mgrwt>
<rwgt>
<wgt id='1'> +6.6588522e+02 </wgt>
<wgt id='2'> +5.5177493e+02 </wgt>
<wgt id='3'> +5.0481800e+02 </wgt>
<wgt id='4'> +6.6588521e+02 </wgt>
<wgt id='5'> +4.9095278e+02 </wgt>
<wgt id='6'> +6.1038483e+02 </wgt>
<wgt id='7'> +5.0195404e+02 </wgt>
<wgt id='8'> +4.5957929e+02 </wgt>
<wgt id='9'> +6.1038483e+02 </wgt>
<wgt id='10'> +4.4704845e+02 </wgt>
<wgt id='11'> +5.5568587e+02 </wgt>
<wgt id='12'> +4.5764046e+02 </wgt>
<wgt id='13'> +4.1934690e+02 </wgt>
<wgt id='14'> +5.5568586e+02 </wgt>
<wgt id='15'> +4.0802164e+02 </wgt>
<wgt id='16'> +5.5071952e+02 </wgt>
<wgt id='17'> +4.6510212e+02 </wgt>
<wgt id='18'> +4.2744225e+02 </wgt>
<wgt id='19'> +5.5071952e+02 </wgt>
<wgt id='20'> +4.1629653e+02 </wgt>
<wgt id='21'> +4.2310710e+02 </wgt>
<wgt id='22'> +3.8913748e+02 </wgt>
<wgt id='23'> +5.0481800e+02 </wgt>
<wgt id='24'> +3.7906847e+02 </wgt>
<wgt id='25'> +4.5957929e+02 </wgt>
<wgt id='26'> +3.8575430e+02 </wgt>
<wgt id='27'> +3.5507169e+02 </wgt>
<wgt id='28'> +4.5957929e+02 </wgt>
<wgt id='29'> +3.4597623e+02 </wgt>
<wgt id='30'> +4.6630824e+02 </wgt>
<wgt id='31'> +3.9729868e+02 </wgt>
<wgt id='32'> +3.6658394e+02 </wgt>
<wgt id='33'> +4.6630824e+02 </wgt>
<wgt id='34'> +3.5745906e+02 </wgt>
<wgt id='35'> +4.2744225e+02 </wgt>
<wgt id='36'> +3.6142577e+02 </wgt>
<wgt id='37'> +3.3373292e+02 </wgt>
<wgt id='38'> +4.2744225e+02 </wgt>
<wgt id='39'> +3.2549264e+02 </wgt>
<wgt id='40'> +3.8913749e+02 </wgt>
<wgt id='41'> +3.2951833e+02 </wgt>
<wgt id='42'> +3.0451734e+02 </wgt>
<wgt id='43'> +3.8913748e+02 </wgt>
<wgt id='44'> +2.9707751e+02 </wgt>
<wgt id='45'> +5.0481800e+02 </wgt>
<wgt id='46'> +5.1933071e+02 </wgt>
<wgt id='47'> +5.2013005e+02 </wgt>
<wgt id='48'> +5.0653965e+02 </wgt>
<wgt id='49'> +4.8119375e+02 </wgt>
<wgt id='50'> +6.0182027e+02 </wgt>
<wgt id='51'> +4.8369981e+02 </wgt>
<wgt id='52'> +4.9123435e+02 </wgt>
<wgt id='53'> +4.9973667e+02 </wgt>
<wgt id='54'> +5.2525638e+02 </wgt>
<wgt id='55'> +5.1888752e+02 </wgt>
<wgt id='56'> +4.6847209e+02 </wgt>
<wgt id='57'> +5.2330999e+02 </wgt>
<wgt id='58'> +4.7463717e+02 </wgt>
<wgt id='59'> +5.3940365e+02 </wgt>
<wgt id='60'> +5.0620784e+02 </wgt>
<wgt id='61'> +4.4749568e+02 </wgt>
<wgt id='62'> +4.8171559e+02 </wgt>
<wgt id='63'> +5.1840275e+02 </wgt>
<wgt id='64'> +4.9978975e+02 </wgt>
<wgt id='65'> +5.1543804e+02 </wgt>
<wgt id='66'> +5.0286694e+02 </wgt>
<wgt id='67'> +5.0709448e+02 </wgt>
<wgt id='68'> +5.8112671e+02 </wgt>
<wgt id='69'> +5.2380202e+02 </wgt>
<wgt id='70'> +5.1562402e+02 </wgt>
<wgt id='71'> +4.9238267e+02 </wgt>
<wgt id='72'> +4.7558158e+02 </wgt>
<wgt id='73'> +4.7144536e+02 </wgt>
<wgt id='74'> +5.5410102e+02 </wgt>
<wgt id='75'> +5.2845766e+02 </wgt>
<wgt id='76'> +5.0961553e+02 </wgt>
<wgt id='77'> +4.8919472e+02 </wgt>
<wgt id='78'> +4.5830834e+02 </wgt>
<wgt id='79'> +5.1773397e+02 </wgt>
<wgt id='80'> +4.7093590e+02 </wgt>
<wgt id='81'> +5.0591437e+02 </wgt>
<wgt id='82'> +4.8904360e+02 </wgt>
<wgt id='83'> +5.0434440e+02 </wgt>
<wgt id='84'> +5.1992286e+02 </wgt>
<wgt id='85'> +4.8600551e+02 </wgt>
<wgt id='86'> +5.1724813e+02 </wgt>
<wgt id='87'> +5.0470423e+02 </wgt>
<wgt id='88'> +4.9932977e+02 </wgt>
<wgt id='89'> +4.7600796e+02 </wgt>
<wgt id='90'> +4.9696664e+02 </wgt>
<wgt id='91'> +4.8070710e+02 </wgt>
<wgt id='92'> +4.6532233e+02 </wgt>
<wgt id='93'> +5.0611502e+02 </wgt>
<wgt id='94'> +4.7589496e+02 </wgt>
<wgt id='95'> +5.1684349e+02 </wgt>
<wgt id='96'> +5.3362883e+02 </wgt>
<wgt id='97'> +4.7910194e+02 </wgt>
<wgt id='98'> +5.1588094e+02 </wgt>
<wgt id='99'> +4.5222269e+02 </wgt>
<wgt id='100'> +4.2772465e+02 </wgt>
<wgt id='101'> +5.7582832e+02 </wgt>
<wgt id='102'> +5.4583734e+02 </wgt>
<wgt id='103'> +5.1602629e+02 </wgt>
<wgt id='104'> +5.2440143e+02 </wgt>
<wgt id='105'> +5.1895575e+02 </wgt>
<wgt id='106'> +4.7266947e+02 </wgt>
<wgt id='107'> +4.7956580e+02 </wgt>
<wgt id='108'> +4.5685379e+02 </wgt>
<wgt id='109'> +4.8726934e+02 </wgt>
<wgt id='110'> +4.8358756e+02 </wgt>
<wgt id='111'> +4.9214710e+02 </wgt>
<wgt id='112'> +5.0041744e+02 </wgt>
<wgt id='113'> +4.9379670e+02 </wgt>
<wgt id='114'> +5.0763847e+02 </wgt>
<wgt id='115'> +4.6912971e+02 </wgt>
<wgt id='116'> +5.3940813e+02 </wgt>
<wgt id='117'> +4.9480918e+02 </wgt>
<wgt id='118'> +5.2808323e+02 </wgt>
<wgt id='119'> +5.2006004e+02 </wgt>
<wgt id='120'> +5.0099503e+02 </wgt>
<wgt id='121'> +4.9924963e+02 </wgt>
<wgt id='122'> +4.9758344e+02 </wgt>
<wgt id='123'> +4.9751521e+02 </wgt>
<wgt id='124'> +5.6758311e+02 </wgt>
<wgt id='125'> +5.9642679e+02 </wgt>
<wgt id='126'> +5.0792287e+02 </wgt>
<wgt id='127'> +5.0233054e+02 </wgt>
<wgt id='128'> +4.6982763e+02 </wgt>
<wgt id='129'> +5.4266792e+02 </wgt>
<wgt id='130'> +4.9057888e+02 </wgt>
<wgt id='131'> +4.9612554e+02 </wgt>
<wgt id='132'> +5.4549906e+02 </wgt>
<wgt id='133'> +5.3573027e+02 </wgt>
<wgt id='134'> +5.1051004e+02 </wgt>
<wgt id='135'> +4.9739838e+02 </wgt>
<wgt id='136'> +5.6071241e+02 </wgt>
<wgt id='137'> +5.0323297e+02 </wgt>
<wgt id='138'> +4.9618244e+02 </wgt>
<wgt id='139'> +5.2039713e+02 </wgt>
<wgt id='140'> +5.0408240e+02 </wgt>
<wgt id='141'> +5.3946092e+02 </wgt>
<wgt id='142'> +4.1942447e+02 </wgt>
<wgt id='143'> +5.1845035e+02 </wgt>
<wgt id='144'> +4.7656933e+02 </wgt>
<wgt id='145'> +4.8362585e+02 </wgt>
</rwgt>
</event>
<event>
 4      1 +5.0481800e+02 2.17288500e+02 7.54677100e-03 1.13592100e-01
       21 -1    0    0  501  502 +0.0000000000e+00 +0.0000000000e+00 +1.7063677522e+02 1.7063677522e+02 0.0000000000e+00 0.0000e+00 -1.0000e+00
       21 -1    0    0  502  503 -0.0000000000e+00 -0.0000000000e+00 -1.2781219365e+03 1.2781219365e+03 0.0000000000e+00 0.0000e+00 -1.0000e+00
        6  1    1    2  501    0 -1.0556514698e+02 +7.8366353547e+01 +8.7451681351e+01 2.3422656168e+02 1.7300000000e+02 0.0000e+00 -1.0000e+00
       -6  1    1    2    0  503 +1.0556514698e+02 -7.8366353547e+01 -1.1949368426e+03 1.2145321501e+03 1.7300000000e+02 0.0000e+00 -1.0000e+00
<mgrwt>
<rscale>  2 0.21728848E+03</rscale>
<asrwt>0</asrwt>
<pdfrwt beam="1">  1       21 0.26251811E-01 0.21728848E+03</pdfrwt>
<pdfrwt beam="2">  1       21 0.19663415E+00 0.21728848E+03</pdfrwt>
<totfact> 0.18998110E+03</totfact>
</mgrwt>
<rwgt>
<wgt id='1'> +7.0305982e+02 </wgt>
<wgt id='2'> +5.7587350e+02 </wgt>
<wgt id='3'> +5.0481799e+02 </wgt>
<wgt id='4'> +7.0305981e+02 </wgt>
<wgt id='5'> +3.5949768e+02 </wgt>
<wgt id='6'> +6.1542971e+02 </wgt>
<wgt id='7'> +5.0067260e+02 </wgt>
<wgt id='8'> +4.3922686e+02 </wgt>
<wgt id='9'> +6.1542970e+02 </wgt>
<wgt id='10'> +3.1511000e+02 </wgt>
<wgt id='11'> +5.3546677e+02 </wgt>
<wgt id='12'> +4.3738062e+02 </wgt>
<wgt id='13'> +3.8473386e+02 </wgt>
<wgt id='14'> +5.3546677e+02 </wgt>
<wgt id='15'> +2.7798640e+02 </wgt>
<wgt id='16'> +5.7669828e+02 </wgt>
<wgt id='17'> +4.8225186e+02 </wgt>
<wgt id='18'> +4.2613320e+02 </wgt>
<wgt id='19'> +5.7669827e+02 </wgt>
<wgt id='20'> +3.0786879e+02 </wgt>
<wgt id='21'> +4.1927662e+02 </wgt>
<wgt id='22'> +3.7076560e+02 </wgt>
<wgt id='23'> +5.0481799e+02 </wgt>
<wgt id='24'> +2.6985580e+02 </wgt>
<wgt id='25'> +4.3922687e+02 </wgt>
<wgt id='26'> +3.6627422e+02 </wgt>
<wgt id='27'> +3.2476630e+02 </wgt>
<wgt id='28'> +4.3922686e+02 </wgt>
<wgt id='29'> +2.3806367e+02 </wgt>
<wgt id='30'> +4.8680967e+02 </wgt>
<wgt id='31'> +4.1036335e+02 </wgt>
<wgt id='32'> +3.6447720e+02 </wgt>
<wgt id='33'> +4.8680966e+02 </wgt>
<wgt id='34'> +2.6661363e+02 </wgt>
<wgt id='35'> +4.2613320e+02 </wgt>
<wgt id='36'> +3.5677573e+02 </wgt>
<wgt id='37'> +3.1712058e+02 </wgt>
<wgt id='38'> +4.2613320e+02 </wgt>
<wgt id='39'> +2.3369447e+02 </wgt>
<wgt id='40'> +3.7076561e+02 </wgt>
<wgt id='41'> +3.1167432e+02 </wgt>
<wgt id='42'> +2.7777679e+02 </wgt>
<wgt id='43'> +3.7076560e+02 </wgt>
<wgt id='44'> +2.0616256e+02 </wgt>
<wgt id='45'> +5.0481800e+02 </wgt>
<wgt id='46'> +5.2338576e+02 </wgt>
<wgt id='47'> +5.3375767e+02 </wgt>
<wgt id='48'> +5.0846158e+02 </wgt>
<wgt id='49'> +4.6535832e+02 </wgt>
<wgt id='50'> +6.2653381e+02 </wgt>
<wgt id='51'> +4.7444481e+02 </wgt>
<wgt id='52'> +4.7087412e+02 </wgt>
<wgt id='53'> +5.0792721e+02 </wgt>
<wgt id='54'> +5.3600594e+02 </wgt>
<wgt id='55'> +5.4683953e+02 </wgt>
<wgt id='56'> +4.7136111e+02 </wgt>
<wgt id='57'> +5.3069760e+02 </wgt>
<wgt id='58'> +4.5201193e+02 </wgt>
<wgt id='59'> +5.4746543e+02 </wgt>
<wgt id='60'> +4.9902809e+02 </wgt>
<wgt id='61'> +4.3456541e+02 </wgt>
<wgt id='62'> +4.6583451e+02 </wgt>
<wgt id='63'> +5.3119529e+02 </wgt>
<wgt id='64'> +4.9947920e+02 </wgt>
<wgt id='65'> +4.8470110e+02 </wgt>
<wgt id='66'> +5.1076198e+02 </wgt>
<wgt id='67'> +5.0879040e+02 </wgt>
<wgt id='68'> +6.2434820e+02 </wgt>
<wgt id='69'> +5.5552246e+02 </wgt>
<wgt id='70'> +5.4146356e+02 </wgt>
<wgt id='71'> +4.7190647e+02 </wgt>
<wgt id='72'> +4.4727884e+02 </wgt>
<wgt id='73'> +4.5309051e+02 </wgt>
<wgt id='74'> +5.8759514e+02 </wgt>
<wgt id='75'> +5.5499174e+02 </wgt>
<wgt id='76'> +5.1303511e+02 </wgt>
<wgt id='77'> +4.7561905e+02 </wgt>
<wgt id='78'> +4.3343303e+02 </wgt>
<wgt id='79'> +5.3735648e+02 </wgt>
<wgt id='80'> +4.4610655e+02 </wgt>
<wgt id='81'> +5.1845465e+02 </wgt>
<wgt id='82'> +4.9686920e+02 </wgt>
<wgt id='83'> +5.0682024e+02 </wgt>
<wgt id='84'> +5.0865887e+02 </wgt>
<wgt id='85'> +4.6367060e+02 </wgt>
<wgt id='86'> +5.3442425e+02 </wgt>
<wgt id='87'> +4.9911594e+02 </wgt>
<wgt id='88'> +5.0090877e+02 </wgt>
<wgt id='89'> +4.3385122e+02 </wgt>
<wgt id='90'> +4.7141508e+02 </wgt>
<wgt id='91'> +4.4679207e+02 </wgt>
<wgt id='92'> +4.5407985e+02 </wgt>
<wgt id='93'> +5.1161256e+02 </wgt>
<wgt id='94'> +4.5990340e+02 </wgt>
<wgt id='95'> +5.2046778e+02 </wgt>
<wgt id='96'> +5.4597521e+02 </wgt>
<wgt id='97'> +4.5793175e+02 </wgt>
<wgt id='98'> +5.4023283e+02 </wgt>
<wgt id='99'> +4.2095918e+02 </wgt>
<wgt id='100'> +3.8034704e+02 </wgt>
<wgt id='101'> +6.0123820e+02 </wgt>
<wgt id='102'> +5.7261235e+02 </wgt>
<wgt id='103'> +4.9379842e+02 </wgt>
<wgt id='104'> +5.4592491e+02 </wgt>
<wgt id='105'> +5.1457954e+02 </wgt>
<wgt id='106'> +4.7307101e+02 </wgt>
<wgt id='107'> +4.7909035e+02 </wgt>
<wgt id='108'> +4.5490527e+02 </wgt>
<wgt id='109'> +4.8684820e+02 </wgt>
<wgt id='110'> +4.6099966e+02 </wgt>
<wgt id='111'> +4.8524366e+02 </wgt>
<wgt id='112'> +5.1588159e+02 </wgt>
<wgt id='113'> +5.1686557e+02 </wgt>
<wgt id='114'> +5.1415623e+02 </wgt>
<wgt id='115'> +4.6253797e+02 </wgt>
<wgt id='116'> +5.6282180e+02 </wgt>
<wgt id='117'> +4.9583701e+02 </wgt>
<wgt id='118'> +5.2880895e+02 </wgt>
<wgt id='119'> +5.4305278e+02 </wgt>
<wgt id='120'> +5.0395921e+02 </wgt>
<wgt id='121'> +4.8825436e+02 </wgt>
<wgt id='122'> +4.9108363e+02 </wgt>
<wgt id='123'> +4.8731957e+02 </wgt>
<wgt id='124'> +5.8313158e+02 </wgt>
<wgt id='125'> +6.4666855e+02 </wgt>
<wgt id='126'> +5.0201439e+02 </wgt>
<wgt id='127'> +4.8861968e+02 </wgt>
<wgt id='128'> +4.8027983e+02 </wgt>
<wgt id='129'> +5.2815502e+02 </wgt>
<wgt id='130'> +5.0138840e+02 </wgt>
<wgt id='131'> +4.7133691e+02 </wgt>
<wgt id='132'> +5.4964664e+02 </wgt>
<wgt id='133'> +5.5435435e+02 </wgt>
<wgt id='134'> +5.2316860e+02 </wgt>
<wgt id='135'> +4.8545514e+02 </wgt>
<wgt id='136'> +5.8759955e+02 </wgt>
<wgt id='137'> +5.2911927e+02 </wgt>
<wgt id='138'> +5.2039053e+02 </wgt>
<wgt id='139'> +5.2347669e+02 </wgt>
<wgt id='140'> +4.9593159e+02 </wgt>
<wgt id='141'> +5.7598285e+02 </wgt>
<wgt id='142'> +3.5405633e+02 </wgt>
<wgt id='143'> +5.1562685e+02 </wgt>
<wgt id='144'> +4.5414742e+02 </wgt>
<wgt id='145'> +4.6698068e+02 </wgt>
</rwgt>
</event>
<event>
 4      1 +5.0481800e+02 1.77711500e+02 7.54677100e-03 1.17003600e-01
       21 -1    0    0  503  502 +0.0000000000e+00 +0.0000000000e+00 +1.1902917523e+03 1.1902917523e+03 0.0000000000e+00 0.0000e+00 -1.0000e+00
       21 -1    0    0  501  503 -0.0000000000e+00 -0.0000000000e+00 -3.7893296221e+01 3.7893296221e+01 0.0000000000e+00 0.0000e+00 -1.0000e+00
        6  1    1    2  501    0 -1.0882523317e+01 +3.9165582056e+01 +2.3995277938e+02 2.9859455532e+02 1.7300000000e+02 0.0000e+00 -1.0000e+00
       -6  1    1    2    0  502 +1.0882523317e+01 -3.9165582056e+01 +9.1244567669e+02 9.2959049320e+02 1.7300000000e+02 0.0000e+00 -1.0000e+00
<mgrwt>
<rscale>  2 0.17771149E+03</rscale>
<asrwt>0</asrwt>
<pdfrwt beam="1">  1       21 0.18312178E+00 0.17771149E+03</pdfrwt>
<pdfrwt beam="2">  1       21 0.58297388E-02 0.17771149E+03</pdfrwt>
<totfact> 0.36258242E+04</totfact>
</mgrwt>
<rwgt>
<wgt id='1'> +6.7002010e+02 </wgt>
<wgt id='2'> +8.9496687e+02 </wgt>
<wgt id='3'> +5.0481800e+02 </wgt>
<wgt id='4'> +6.7002011e+02 </wgt>
<wgt id='5'> +4.7072436e+02 </wgt>
<wgt id='6'> +6.2182100e+02 </wgt>
<wgt id='7'> +8.3629439e+02 </wgt>
<wgt id='8'> +4.6068051e+02 </wgt>
<wgt id='9'> +6.2182100e+02 </wgt>
<wgt id='10'> +4.2931599e+02 </wgt>
<wgt id='11'> +5.6745364e+02 </wgt>
<wgt id='12'> +7.7571812e+02 </wgt>
<wgt id='13'> +4.2069943e+02 </wgt>
<wgt id='14'> +5.6745365e+02 </wgt>
<wgt id='15'> +3.9225708e+02 </wgt>
<wgt id='16'> +5.4394787e+02 </wgt>
<wgt id='17'> +7.0900348e+02 </wgt>
<wgt id='18'> +4.2397504e+02 </wgt>
<wgt id='19'> +5.4394788e+02 </wgt>
<wgt id='20'> +3.9718218e+02 </wgt>
<wgt id='21'> +6.6252244e+02 </wgt>
<wgt id='22'> +3.8690585e+02 </wgt>
<wgt id='23'> +5.0481800e+02 </wgt>
<wgt id='24'> +3.6224312e+02 </wgt>
<wgt id='25'> +4.6068051e+02 </wgt>
<wgt id='26'> +6.1453320e+02 </wgt>
<wgt id='27'> +3.5332745e+02 </wgt>
<wgt id='28'> +4.6068051e+02 </wgt>
<wgt id='29'> +3.3097400e+02 </wgt>
<wgt id='30'> +4.5683855e+02 </wgt>
<wgt id='31'> +5.7635181e+02 </wgt>
<wgt id='32'> +3.6131890e+02 </wgt>
<wgt id='33'> +4.5683855e+02 </wgt>
<wgt id='34'> +3.3957835e+02 </wgt>
<wgt id='35'> +4.2397504e+02 </wgt>
<wgt id='36'> +5.3856718e+02 </wgt>
<wgt id='37'> +3.2972790e+02 </wgt>
<wgt id='38'> +4.2397504e+02 </wgt>
<wgt id='39'> +3.0970654e+02 </wgt>
<wgt id='40'> +3.8690585e+02 </wgt>
<wgt id='41'> +4.9955653e+02 </wgt>
<wgt id='42'> +3.0111179e+02 </wgt>
<wgt id='43'> +3.8690585e+02 </wgt>
<wgt id='44'> +2.8297242e+02 </wgt>
<wgt id='45'> +5.0481800e+02 </wgt>
<wgt id='46'> +5.1880862e+02 </wgt>
<wgt id='47'> +5.1877298e+02 </wgt>
<wgt id='48'> +5.0368263e+02 </wgt>
<wgt id='49'> +4.7098779e+02 </wgt>
<wgt id='50'> +5.8847979e+02 </wgt>
<wgt id='51'> +4.7774008e+02 </wgt>
<wgt id='52'> +4.7943068e+02 </wgt>
<wgt id='53'> +5.0275293e+02 </wgt>
<wgt id='54'> +5.3322256e+02 </wgt>
<wgt id='55'> +5.5409744e+02 </wgt>
<wgt id='56'> +4.8024110e+02 </wgt>
<wgt id='57'> +5.3432752e+02 </wgt>
<wgt id='58'> +4.6474428e+02 </wgt>
<wgt id='59'> +5.4792941e+02 </wgt>
<wgt id='60'> +5.0891387e+02 </wgt>
<wgt id='61'> +4.4931570e+02 </wgt>
<wgt id='62'> +4.7072067e+02 </wgt>
<wgt id='63'> +5.2851085e+02 </wgt>
<wgt id='64'> +5.0531336e+02 </wgt>
<wgt id='65'> +4.7421449e+02 </wgt>
<wgt id='66'> +5.0795803e+02 </wgt>
<wgt id='67'> +5.0743754e+02 </wgt>
<wgt id='68'> +5.9982240e+02 </wgt>
<wgt id='69'> +5.3527736e+02 </wgt>
<wgt id='70'> +5.3386751e+02 </wgt>
<wgt id='71'> +4.7701395e+02 </wgt>
<wgt id='72'> +4.7090846e+02 </wgt>
<wgt id='73'> +4.6263937e+02 </wgt>
<wgt id='74'> +5.6943934e+02 </wgt>
<wgt id='75'> +5.4036998e+02 </wgt>
<wgt id='76'> +5.1744905e+02 </wgt>
<wgt id='77'> +4.8273112e+02 </wgt>
<wgt id='78'> +4.4259684e+02 </wgt>
<wgt id='79'> +5.3405432e+02 </wgt>
<wgt id='80'> +4.5576880e+02 </wgt>
<wgt id='81'> +5.1766879e+02 </wgt>
<wgt id='82'> +4.9168625e+02 </wgt>
<wgt id='83'> +4.9707032e+02 </wgt>
<wgt id='84'> +4.9854510e+02 </wgt>
<wgt id='85'> +4.6532131e+02 </wgt>
<wgt id='86'> +5.2455389e+02 </wgt>
<wgt id='87'> +5.0076552e+02 </wgt>
<wgt id='88'> +4.9135182e+02 </wgt>
<wgt id='89'> +4.4667137e+02 </wgt>
<wgt id='90'> +4.8072334e+02 </wgt>
<wgt id='91'> +4.5295256e+02 </wgt>
<wgt id='92'> +4.7392905e+02 </wgt>
<wgt id='93'> +5.0910785e+02 </wgt>
<wgt id='94'> +4.6800745e+02 </wgt>
<wgt id='95'> +5.2909275e+02 </wgt>
<wgt id='96'> +5.2678593e+02 </wgt>
<wgt id='97'> +4.6457023e+02 </wgt>
<wgt id='98'> +5.3339793e+02 </wgt>
<wgt id='99'> +4.3482693e+02 </wgt>
<wgt id='100'> +4.0108637e+02 </wgt>
<wgt id='101'> +5.8321910e+02 </wgt>
<wgt id='102'> +5.6029502e+02 </wgt>
<wgt id='103'> +4.9274999e+02 </wgt>
<wgt id='104'> +5.3301125e+02 </wgt>
<wgt id='105'> +5.1831435e+02 </wgt>
<wgt id='106'> +4.8756982e+02 </wgt>
<wgt id='107'> +4.8612209e+02 </wgt>
<wgt id='108'> +4.6957178e+02 </wgt>
<wgt id='109'> +4.9797693e+02 </wgt>
<wgt id='110'> +4.7245070e+02 </wgt>
<wgt id='111'> +4.9196274e+02 </wgt>
<wgt id='112'> +5.1943198e+02 </wgt>
<wgt id='113'> +5.1978837e+02 </wgt>
<wgt id='114'> +5.2059754e+02 </wgt>
<wgt id='115'> +4.6255716e+02 </wgt>
<wgt id='116'> +5.4778963e+02 </wgt>
<wgt id='117'> +4.9301282e+02 </wgt>
<wgt id='118'> +5.2224823e+02 </wgt>
<wgt id='119'> +5.4465592e+02 </wgt>
<wgt id='120'> +5.0378070e+02 </wgt>
<wgt id='121'> +5.0079979e+02 </wgt>
<wgt id='122'> +4.9591730e+02 </wgt>
<wgt id='123'> +4.8572236e+02 </wgt>
<wgt id='124'> +5.6761038e+02 </wgt>
<wgt id='125'> +6.1902850e+02 </wgt>
<wgt id='126'> +4.9760994e+02 </wgt>
<wgt id='127'> +4.8901598e+02 </wgt>
<wgt id='128'> +4.8049942e+02 </wgt>
<wgt id='129'> +5.2276872e+02 </wgt>
<wgt id='130'> +4.8571785e+02 </wgt>
<wgt id='131'> +4.7407529e+02 </wgt>
<wgt id='132'> +5.5338645e+02 </wgt>
<wgt id='133'> +5.4598403e+02 </wgt>
<wgt id='134'> +5.2579328e+02 </wgt>
<wgt id='135'> +4.8738093e+02 </wgt>
<wgt id='136'> +5.8744453e+02 </wgt>
<wgt id='137'> +5.1877027e+02 </wgt>
<wgt id='138'> +5.0769088e+02 </wgt>
<wgt id='139'> +5.2068341e+02 </wgt>
<wgt id='140'> +4.9513223e+02 </wgt>
<wgt id='141'> +5.5996373e+02 </wgt>
<wgt id='142'> +3.7731804e+02 </wgt>
<wgt id='143'> +5.1958967e+02 </wgt>
<wgt id='144'> +4.6610363e+02 </wgt>
<wgt id='145'> +4.6986009e+02 </wgt>
</rwgt>
</event>
<event>
 4      1 +5.0481800e+02 1.90415500e+02 7.54677100e-03 1.15808700e-01
       21 -1    0    0  501  502 +0.0000000000e+00 +0.0000000000e+00 +7.7432090304e+01 7.7432090304e+01 0.0000000000e+00 0.0000e+00 -1.0000e+00
       21 -1    0    0  502  503 -0.0000000000e+00 -0.0000000000e+00 -7.1298988194e+02 7.1298988194e+02 0.0000000000e+00 0.0000e+00 1.0000e+00
        6  1    1    2  501    0 -7.8423641628e+01 -1.3371613748e+01 -8.6234609680e+01 2.0903223562e+02 1.7300000000e+02 0.0000e+00 -1.0000e+00
       -6  1    1    2    0  503 +7.8423641628e+01 +1.3371613748e+01 -5.4932318196e+02 5.8138973663e+02 1.7300000000e+02 0.0000e+00 1.0000e+00
<mgrwt>
<rscale>  2 0.19041551E+03</rscale>
<asrwt>0</asrwt>
<pdfrwt beam="1">  1       21 0.11912629E-01 0.19041551E+03</pdfrwt>
<pdfrwt beam="2">  1       21 0.10969075E+00 0.19041551E+03</pdfrwt>
<totfact> 0.39142947E+04</totfact>
</mgrwt>
<rwgt>
<wgt id='1'> +6.5824067e+02 </wgt>
<wgt id='2'> +6.1640649e+02 </wgt>
<wgt id='3'> +5.0481800e+02 </wgt>
<wgt id='4'> +6.5824066e+02 </wgt>
<wgt id='5'> +4.6729399e+02 </wgt>
<wgt id='6'> +6.1981833e+02 </wgt>
<wgt id='7'> +5.7757033e+02 </wgt>
<wgt id='8'> +4.6737757e+02 </wgt>
<wgt id='9'> +6.1981833e+02 </wgt>
<wgt id='10'> +4.3261143e+02 </wgt>
<wgt id='11'> +5.7384877e+02 </wgt>
<wgt id='12'> +5.3467792e+02 </wgt>
<wgt id='13'> +4.3287350e+02 </wgt>
<wgt id='14'> +5.7384877e+02 </wgt>
<wgt id='15'> +4.0079789e+02 </wgt>
<wgt id='16'> +5.3611150e+02 </wgt>
<wgt id='17'> +5.0660547e+02 </wgt>
<wgt id='18'> +4.2486759e+02 </wgt>
<wgt id='19'> +5.3611150e+02 </wgt>
<wgt id='20'> +3.9505445e+02 </wgt>
<wgt id='21'> +4.7468723e+02 </wgt>
<wgt id='22'> +3.9335678e+02 </wgt>
<wgt id='23'> +5.0481800e+02 </wgt>
<wgt id='24'> +3.6573351e+02 </wgt>
<wgt id='25'> +4.6737757e+02 </wgt>
<wgt id='26'> +4.3943528e+02 </wgt>
<wgt id='27'> +3.6431728e+02 </wgt>
<wgt id='28'> +4.6737757e+02 </wgt>
<wgt id='29'> +3.3883806e+02 </wgt>
<wgt id='30'> +4.5120500e+02 </wgt>
<wgt id='31'> +4.2792346e+02 </wgt>
<wgt id='32'> +3.6253555e+02 </wgt>
<wgt id='33'> +4.5120499e+02 </wgt>
<wgt id='34'> +3.3835572e+02 </wgt>
<wgt id='35'> +4.2486760e+02 </wgt>
<wgt id='36'> +4.0096251e+02 </wgt>
<wgt id='37'> +3.3564767e+02 </wgt>
<wgt id='38'> +4.2486759e+02 </wgt>
<wgt id='39'> +3.1324296e+02 </wgt>
<wgt id='40'> +3.9335679e+02 </wgt>
<wgt id='41'> +3.7118562e+02 </wgt>
<wgt id='42'> +3.1086854e+02 </wgt>
<wgt id='43'> +3.9335678e+02 </wgt>
<wgt id='44'> +2.9020759e+02 </wgt>
<wgt id='45'> +5.0481800e+02 </wgt>
<wgt id='46'> +5.1575417e+02 </wgt>
<wgt id='47'> +5.1916030e+02 </wgt>
<wgt id='48'> +5.0718598e+02 </wgt>
<wgt id='49'> +4.9361389e+02 </wgt>
<wgt id='50'> +5.9831117e+02 </wgt>
<wgt id='51'> +4.9043746e+02 </wgt>
<wgt id='52'> +5.0178952e+02 </wgt>
<wgt id='53'> +4.9866505e+02 </wgt>
<wgt id='54'> +5.1564808e+02 </wgt>
<wgt id='55'> +4.8688859e+02 </wgt>
<wgt id='56'> +4.6333858e+02 </wgt>
<wgt id='57'> +5.1065479e+02 </wgt>
<wgt id='58'> +4.9115234e+02 </wgt>
<wgt id='59'> +5.2658100e+02 </wgt>
<wgt id='60'> +5.0434594e+02 </wgt>
<wgt id='61'> +4.4302955e+02 </wgt>
<wgt id='62'> +4.9231145e+02 </wgt>
<wgt id='63'> +5.0936474e+02 </wgt>
<wgt id='64'> +4.9711674e+02 </wgt>
<wgt id='65'> +5.5055299e+02 </wgt>
<wgt id='66'> +4.9718055e+02 </wgt>
<wgt id='67'> +5.0747160e+02 </wgt>
<wgt id='68'> +5.5968721e+02 </wgt>
<wgt id='69'> +5.0641601e+02 </wgt>
<wgt id='70'> +5.0166899e+02 </wgt>
<wgt id='71'> +5.0613727e+02 </wgt>
<wgt id='72'> +4.8560286e+02 </wgt>
<wgt id='73'> +4.8563906e+02 </wgt>
<wgt id='74'> +5.3680609e+02 </wgt>
<wgt id='75'> +5.1796023e+02 </wgt>
<wgt id='76'> +5.0128297e+02 </wgt>
<wgt id='77'> +4.9377480e+02 </wgt>
<wgt id='78'> +4.7826986e+02 </wgt>
<wgt id='79'> +5.0246043e+02 </wgt>
<wgt id='80'> +4.8729707e+02 </wgt>
<wgt id='81'> +4.9773464e+02 </wgt>
<wgt id='82'> +4.9505403e+02 </wgt>
<wgt id='83'> +5.0849347e+02 </wgt>
<wgt id='84'> +5.3618765e+02 </wgt>
<wgt id='85'> +5.0789120e+02 </wgt>
<wgt id='86'> +5.0874049e+02 </wgt>
<wgt id='87'> +5.0743775e+02 </wgt>
<wgt id='88'> +5.0476617e+02 </wgt>
<wgt id='89'> +5.0380230e+02 </wgt>
<wgt id='90'> +5.1098470e+02 </wgt>
<wgt id='91'> +5.0916113e+02 </wgt>
<wgt id='92'> +4.6400027e+02 </wgt>
<wgt id='93'> +5.0281008e+02 </wgt>
<wgt id='94'> +4.8816492e+02 </wgt>
<wgt id='95'> +5.0347768e+02 </wgt>
<wgt id='96'> +5.3720008e+02 </wgt>
<wgt id='97'> +4.9525646e+02 </wgt>
<wgt id='98'> +4.9840440e+02 </wgt>
<wgt id='99'> +4.7350325e+02 </wgt>
<wgt id='100'> +4.6279543e+02 </wgt>
<wgt id='101'> +5.5937385e+02 </wgt>
<wgt id='102'> +5.2347610e+02 </wgt>
<wgt id='103'> +5.3669212e+02 </wgt>
<wgt id='104'> +5.1174637e+02 </wgt>
<wgt id='105'> +5.2129713e+02 </wgt>
<wgt id='106'> +4.6486896e+02 </wgt>
<wgt id='107'> +4.8212374e+02 </wgt>
<wgt id='108'> +4.4983235e+02 </wgt>
<wgt id='109'> +4.7948912e+02 </wgt>
<wgt id='110'> +4.9739510e+02 </wgt>
<wgt id='111'> +4.9208353e+02 </wgt>
<wgt id='112'> +4.8408312e+02 </wgt>
<wgt id='113'> +4.7445616e+02 </wgt>
<wgt id='114'> +4.9898205e+02 </wgt>
<wgt id='115'> +4.7739763e+02 </wgt>
<wgt id='116'> +5.2438290e+02 </wgt>
<wgt id='117'> +4.9827528e+02 </wgt>
<wgt id='118'> +5.2795906e+02 </wgt>
<wgt id='119'> +4.9963783e+02 </wgt>
<wgt id='120'> +4.9539032e+02 </wgt>
<wgt id='121'> +4.9767079e+02 </wgt>
<wgt id='122'> +4.9919250e+02 </wgt>
<wgt id='123'> +5.0529074e+02 </wgt>
<wgt id='124'> +5.5872151e+02 </wgt>
<wgt id='125'> +5.6855946e+02 </wgt>
<wgt id='126'> +5.1672000e+02 </wgt>
<wgt id='127'> +5.1401626e+02 </wgt>
<wgt id='128'> +4.6157156e+02 </wgt>
<wgt id='129'> +5.5968667e+02 </wgt>
<wgt id='130'> +4.9773148e+02 </wgt>
<wgt id='131'> +5.1944476e+02 </wgt>
<wgt id='132'> +5.3303171e+02 </wgt>
<wgt id='133'> +5.2158040e+02 </wgt>
<wgt id='134'> +4.9531701e+02 </wgt>
<wgt id='135'> +5.0857979e+02 </wgt>
<wgt id='136'> +5.2962129e+02 </wgt>
<wgt id='137'> +4.8715346e+02 </wgt>
<wgt id='138'> +4.7756746e+02 </wgt>
<wgt id='139'> +5.1982689e+02 </wgt>
<wgt id='140'> +5.1633964e+02 </wgt>
<wgt id='141'> +5.1813014e+02 </wgt>
<wgt id='142'> +4.6623014e+02 </wgt>
<wgt id='143'> +5.1559390e+02 </wgt>
<wgt id='144'> +4.9143429e+02 </wgt>
<wgt id='145'> +4.9689318e+02 </wgt>
</rwgt>
</event>
</LesHouchesEvent>
